11
	Energy:       5.9959236
C          1.91573        0.06783        0.62095
O          2.90373        1.11647        0.70668
C          4.07142        0.57771        1.35085
C          3.98939       -0.91898        1.04092
O          2.57436       -1.16883        0.96858
H          3.99394        0.74644        2.42843
H          4.97946        1.03516        0.94966
H          4.43833       -1.12913        0.06627
O          1.38071       -0.00659       -0.71327
Li         0.82950        0.66413       -1.38873
H          4.45011       -1.52997        1.82142
