18
	Energy:      10.9609194
N          0.55285       -2.19008        0.98349
B          1.99121       -1.75806        0.59477
C          0.42165       -3.64306        1.17580
C         -0.41523       -1.73550       -0.02697
C          3.15311       -2.82650        0.32440
C          2.35205       -0.20826        0.47241
H         -0.60698       -3.89247        1.51412
H          1.11002       -3.99324        1.97392
H          0.62772       -4.19962        0.23439
H         -0.19086       -2.16993       -1.02656
H         -0.41782       -0.62860       -0.10465
H         -1.44581       -2.02963        0.26657
H          3.33000       -3.43540        1.23425
H          4.09707       -2.30538        0.06208
H          2.86787       -3.48953       -0.51713
H          1.47511        0.42633        0.71029
H          2.69103        0.01071       -0.56107
H          3.16670        0.03646        1.18427
