
                                 *****************
                                 * O   R   C   A *
                                 *****************

                                            #,                                       
                                            ###                                      
                                            ####                                     
                                            #####                                    
                                            ######                                   
                                           ########,                                 
                                     ,,################,,,,,                         
                               ,,#################################,,                 
                          ,,##########################################,,             
                       ,#########################################, ''#####,          
                    ,#############################################,,   '####,        
                  ,##################################################,,,,####,       
                ,###########''''           ''''###############################       
              ,#####''   ,,,,##########,,,,          '''####'''          '####       
            ,##' ,,,,###########################,,,                        '##       
           ' ,,###''''                  '''############,,,                           
         ,,##''                                '''############,,,,        ,,,,,,###''
      ,#''                                            '''#######################'''  
     '                                                          ''''####''''         
             ,#######,   #######,   ,#######,      ##                                
            ,#'     '#,  ##    ##  ,#'     '#,    #''#        ######   ,####,        
            ##       ##  ##   ,#'  ##            #'  '#       #        #'  '#        
            ##       ##  #######   ##           ,######,      #####,   #    #        
            '#,     ,#'  ##    ##  '#,     ,#' ,#      #,         ##   #,  ,#        
             '#######'   ##     ##  '#######'  #'      '#     #####' # '####'        



                  #######################################################
                  #                        -***-                        #
                  #          Department of theory and spectroscopy      #
                  #    Directorship and core code : Frank Neese         #
                  #        Max Planck Institute fuer Kohlenforschung    #
                  #                Kaiser Wilhelm Platz 1               #
                  #                 D-45470 Muelheim/Ruhr               #
                  #                      Germany                        #
                  #                                                     #
                  #                  All rights reserved                #
                  #                        -***-                        #
                  #######################################################


                         Program Version 5.0.1 -  RELEASE  -


 With contributions from (in alphabetic order):
   Daniel Aravena         : Magnetic Suceptibility
   Michael Atanasov       : Ab Initio Ligand Field Theory (pilot matlab implementation)
   Alexander A. Auer      : GIAO ZORA, VPT2 properties, NMR spectrum
   Ute Becker             : Parallelization
   Giovanni Bistoni       : ED, misc. LED, open-shell LED, HFLD
   Martin Brehm           : Molecular dynamics
   Dmytro Bykov           : SCF Hessian
   Vijay G. Chilkuri      : MRCI spin determinant printing, contributions to CSF-ICE
   Dipayan Datta          : RHF DLPNO-CCSD density
   Achintya Kumar Dutta   : EOM-CC, STEOM-CC
   Dmitry Ganyushin       : Spin-Orbit,Spin-Spin,Magnetic field MRCI
   Miquel Garcia          : C-PCM and meta-GGA Hessian, CC/C-PCM, Gaussian charge scheme
   Yang Guo               : DLPNO-NEVPT2, F12-NEVPT2, CIM, IAO-localization
   Andreas Hansen         : Spin unrestricted coupled pair/coupled cluster methods
   Benjamin Helmich-Paris : MC-RPA, TRAH-SCF, COSX integrals
   Lee Huntington         : MR-EOM, pCC
   Robert Izsak           : Overlap fitted RIJCOSX, COSX-SCS-MP3, EOM
   Marcus Kettner         : VPT2
   Christian Kollmar      : KDIIS, OOCD, Brueckner-CCSD(T), CCSD density, CASPT2, CASPT2-K
   Simone Kossmann        : Meta GGA functionals, TD-DFT gradient, OOMP2, MP2 Hessian
   Martin Krupicka        : Initial AUTO-CI
   Lucas Lang             : DCDCAS
   Marvin Lechner         : AUTO-CI (C++ implementation), FIC-MRCC
   Dagmar Lenk            : GEPOL surface, SMD
   Dimitrios Liakos       : Extrapolation schemes; Compound Job, initial MDCI parallelization
   Dimitrios Manganas     : Further ROCIS development; embedding schemes
   Dimitrios Pantazis     : SARC Basis sets
   Anastasios Papadopoulos: AUTO-CI, single reference methods and gradients
   Taras Petrenko         : DFT Hessian,TD-DFT gradient, ASA, ECA, R-Raman, ABS, FL, XAS/XES, NRVS
   Peter Pinski           : DLPNO-MP2, DLPNO-MP2 Gradient
   Christoph Reimann      : Effective Core Potentials
   Marius Retegan         : Local ZFS, SOC
   Christoph Riplinger    : Optimizer, TS searches, QM/MM, DLPNO-CCSD(T), (RO)-DLPNO pert. Triples
   Tobias Risthaus        : Range-separated hybrids, TD-DFT gradient, RPA, STAB
   Michael Roemelt        : Original ROCIS implementation
   Masaaki Saitow         : Open-shell DLPNO-CCSD energy and density
   Barbara Sandhoefer     : DKH picture change effects
   Avijit Sen             : IP-ROCIS
   Kantharuban Sivalingam : CASSCF convergence, NEVPT2, FIC-MRCI
   Bernardo de Souza      : ESD, SOC TD-DFT
   Georgi Stoychev        : AutoAux, RI-MP2 NMR, DLPNO-MP2 response
   Willem Van den Heuvel  : Paramagnetic NMR
   Boris Wezisla          : Elementary symmetry handling
   Frank Wennmohs         : Technical directorship


 We gratefully acknowledge several colleagues who have allowed us to
 interface, adapt or use parts of their codes:
   Stefan Grimme, W. Hujo, H. Kruse, P. Pracht,  : VdW corrections, initial TS optimization,
                  C. Bannwarth, S. Ehlert          DFT functionals, gCP, sTDA/sTD-DF
   Ed Valeev, F. Pavosevic, A. Kumar             : LibInt (2-el integral package), F12 methods
   Garnet Chan, S. Sharma, J. Yang, R. Olivares  : DMRG
   Ulf Ekstrom                                   : XCFun DFT Library
   Mihaly Kallay                                 : mrcc  (arbitrary order and MRCC methods)
   Jiri Pittner, Ondrej Demel                    : Mk-CCSD
   Frank Weinhold                                : gennbo (NPA and NBO analysis)
   Christopher J. Cramer and Donald G. Truhlar   : smd solvation model
   Lars Goerigk                                  : TD-DFT with DH, B97 family of functionals
   V. Asgeirsson, H. Jonsson                     : NEB implementation
   FAccTs GmbH                                   : IRC, NEB, NEB-TS, DLPNO-Multilevel, CI-OPT
                                                   MM, QMMM, 2- and 3-layer-ONIOM, Crystal-QMMM,
                                                   LR-CPCM, SF, NACMEs, symmetry and pop. for TD-DFT,
                                                   nearIR, NL-DFT gradient (VV10), updates on ESD,
                                                   ML-optimized integration grids
   S Lehtola, MJT Oliveira, MAL Marques          : LibXC Library
   Liviu Ungur et al                             : ANISO software


 Your calculation uses the libint2 library for the computation of 2-el integrals
 For citations please refer to: http://libint.valeyev.net

 Your ORCA version has been built with support for libXC version: 5.1.0
 For citations please refer to: https://tddft.org/programs/libxc/

 This ORCA versions uses:
   CBLAS   interface :  Fast vector & matrix operations
   LAPACKE interface :  Fast linear algebra routines
   SCALAPACK package :  Parallel linear algebra routines
   Shared memory     :  Shared parallel matrices
   BLAS/LAPACK       :  OpenBLAS 0.3.15  USE64BITINT DYNAMIC_ARCH NO_AFFINITY Zen SINGLE_THREADED
        Core in use  :  Zen
   Copyright (c) 2011-2014, The OpenBLAS Project


Your calculation utilizes the atom-pairwise dispersion correction
with the Becke-Johnson damping scheme (D3BJ)
Cite in your paper:
S.Grimme, S.Ehrlich, L.Goerigk, J Comput Chem, (2011), 32, 1456–1465 
S.Grimme, J.Antony, S.Ehrlich and H.Krieg, J.Chem.Phys., 132, (2010), 154104 
   

Your calculation employs the composite approach B97-3c by Grimme and coworkers.
For the correct reference, please check the publication list of the Grimme group:
http://www.thch.uni-bonn.de/tc/index.php?section=publikationen&subsection=grimme#2017
   

XCFun DFT library Copyright 2009-2010 Ulf Ekstrom and contributors.
See http://admol.org/xcfun for more information.
This is free software; see the source code for copying conditions.
There is ABSOLUTELY NO WARRANTY; not even for MERCHANTABILITY or FITNESS FOR A PARTICULAR PURPOSE.
For details see the documentation.
Scientific users of this library should cite U. Ekstrom, L. Visscher, R. Bast, A. J. Thorvaldsen and K. Ruud;
J.Chem.Theor.Comp. 2010, DOI: 10.1021/ct100117s
XCFun Version 0.99 

================================================================================

----- Orbital basis set information -----
Your calculation utilizes the basis: def2-SVP
   F. Weigend and R. Ahlrichs, Phys. Chem. Chem. Phys. 7, 3297 (2005).

The basis set includes atom-specific modifications.

Your calculation utilizes the basis: def2-TZVP
   F. Weigend and R. Ahlrichs, Phys. Chem. Chem. Phys. 7, 3297 (2005).

Your calculation utilizes the basis: STO-3G
   H-Ne       : W. J. Hehre, R. F. Stewart and J. A. Pople, J. Chem. Phys. 2657 (1969).
   Na-Ar      : W. J. Hehre, R. Ditchfield, R. F. Stewart and J. A. Pople, J. Chem. Phys. 2769 (1970).
   K,Ca,Ga-Kr : W. J. Pietro, B. A. Levy, W. J. Hehre and R. F. Stewart, J. Am. Chem. Soc. 19, 2225 (1980).
   Sc-Zn,Y-Cd : W. J. Pietro and W. J. Hehre, J. Comp. Chem. 4, 241 (1983).

----- AuxJ basis set information -----
Your calculation utilizes the basis: def2-mTZVP/J
================================================================================
                                        WARNINGS
                       Please study these warnings very carefully!
================================================================================

WARNING: SinglePoint found together with IRC
         Switching on EnGrad - energy plus gradient calculation
WARNING: Old DensityContainer found on disk!
         Will remove this file - 
         If you want to keep old densities, please start your calculation with a different basename. 


INFO   : the flag for use of the SHARK integral package has been found!

================================================================================
                                       INPUT FILE
================================================================================
NAME = /scratch/negishi/li1724/Test-CentralizedCode-4-5/DFT/CWMHSQPVYVHHDK-QJPJQTDYNZXKQF_0_1/CWMHSQPVYVHHDK-QJPJQTDYNZXKQF_0_1-IRC.in
|  1> ! B97-3c def2-SVP CPCM(DMSO) defgrid2 IRC
|  2> 
|  3> %scf
|  4>   MaxIter 500
|  5> end
|  6> 
|  7> %pal
|  8>   nproc 32
|  9> end
| 10> 
| 11> %maxcore 7200
| 12> 
| 13> %irc
| 14>   MaxIter 100
| 15>   PrintLevel 1
| 16>   Direction both
| 17>   Follow_CoordType cartesian
| 18>   Scale_Displ_SD 0.15
| 19>   Adapt_Scale_Displ true
| 20> InitHess calc_anfreq
| 21> end
| 22> 
| 23> %base "CWMHSQPVYVHHDK-QJPJQTDYNZXKQF_0_1-IRC"
| 24> 
| 25> *xyz -1 1
| 26> Br   0.19860896   3.16972639  -0.87655016 newgto "def2-TZVP" end
| 27> C   -2.47648926  -1.10442709  -1.56057183 
| 28> C   -4.15136306  -2.17083322  -0.10889112 
| 29> C    3.37482549  -2.18438192  -0.78528908 
| 30> C    0.93372210  -1.95408862  -0.86616351 
| 31> C   -3.13788470  -2.53513391   0.75645259 
| 32> C    0.84634160  -3.35211023  -0.97371188 
| 33> C   -1.42278297  -1.48176056  -0.63941808 
| 34> C    3.25692231  -3.57813179  -0.88950823 
| 35> C   -2.18433078  -0.41824898  -2.76309226 
| 36> C   -3.84253896  -1.43926841  -1.28369119 
| 37> C    2.24008375  -1.34476456  -0.76534319 
| 38> C   -1.78106466  -2.19813469   0.53251772 
| 39> C    1.99020331  -4.16506354  -0.98390693 
| 40> C   -5.97096129   0.77481989   1.19781850 
| 41> C   -3.67054796   1.68705170  -0.17639269 
| 42> C   -3.66039572   1.36338671   1.18962812 
| 43> C   -3.18319036  -0.03502037  -3.64173575 
| 44> C   -4.85038413  -1.02852860  -2.19691181 
| 45> C   -2.50725832   2.13841341  -0.79877116 
| 46> C   -2.47051844   1.51789818   1.92676961 
| 47> C   -1.34085145   2.25751715  -0.05662397 newgto "def2-TZVP" end
| 48> C   -1.31529828   1.98513648   1.31005612 
| 49> C   -0.81871115  -3.83924395   2.16260724 
| 50> C   -0.79714828  -2.56087511   1.57513009 
| 51> C   -4.53337152  -0.33316980  -3.34927150 
| 52> C    3.47732591   0.69341552  -0.80326950 
| 53> C    4.01670051   0.80505675  -2.10471614 
| 54> C    4.25638498   0.59129400   3.99184679 
| 55> C    4.63745734   0.66627734   2.64875967 
| 56> C    2.98987074   1.03154165   4.38549722 
| 57> C    3.75994927   1.17481362   1.67695415 
| 58> C    4.19656255   1.29537017   0.26701961 
| 59> C    0.09347827  -4.19406186   3.16005773 
| 60> C    5.19597954   1.49940192  -2.36166621 
| 61> C    0.16576191  -1.64353321   2.03468013 
| 62> C    2.11302020   1.54206129   3.42225574 
| 63> C    2.49640420   1.60464899   2.09045135 newgto "def2-TZVP" end
| 64> C    5.39013662   1.98607363  -0.00954392 
| 65> C    5.89409578   2.10065720  -1.30555105 
| 66> C    1.05361098  -3.27496726   3.59423799 
| 67> C    1.07975494  -1.99488581   3.02686004 
| 68> Cu   0.46395791   0.75015727  -0.72831053 newgto "def2-TZVP" end
| 69> H   -1.14244056  -0.18119680  -2.97615262 newgto "STO-3G" end
| 70> H   -6.68205832   0.39644317   1.93895845 newgto "STO-3G" end
| 71> H   -5.18834903  -2.42755192   0.10827677 newgto "STO-3G" end
| 72> H    4.36185815  -1.72835205  -0.69909453 newgto "STO-3G" end
| 73> H   -0.14177261  -3.80591624  -1.05871835 newgto "STO-3G" end
| 74> H   -3.38983799  -3.06501810   1.67650798 newgto "STO-3G" end
| 75> H    4.15602299  -4.19740590  -0.89110541 newgto "STO-3G" end
| 76> H   -6.32464480   1.74290446   0.81535180 newgto "STO-3G" end
| 77> H   -1.54551617  -4.57367424   1.81347249 newgto "STO-3G" end
| 78> H   -4.56717454   1.56833273  -0.77785223 newgto "STO-3G" end
| 79> H   -2.51407185   2.37580246  -1.85902135 newgto "STO-3G" end
| 80> H   -2.46305908   1.27742650   2.98866447 newgto "STO-3G" end
| 81> H    1.88379930  -5.24774337  -1.07098375 newgto "STO-3G" end
| 82> H   -2.92911653   0.49834999  -4.55868681 newgto "STO-3G" end
| 83> H    3.46989516   0.32890709  -2.92010720 newgto "STO-3G" end
| 84> H   -5.89019410   0.05562241   0.37207031 newgto "STO-3G" end
| 85> H   -5.88962568  -1.27134250  -1.96872724 newgto "STO-3G" end
| 86> H   -0.40888393   2.13438658   1.88936759 newgto "STO-3G" end
| 87> H    4.95018864   0.18624965   4.72960473 newgto "STO-3G" end
| 88> H    5.62525864   0.31863028   2.34366352 newgto "STO-3G" end
| 89> H   -5.32212754  -0.02391864  -4.03678424 newgto "STO-3G" end
| 90> H    2.68676322   0.97575276   5.43162661 newgto "STO-3G" end
| 91> H    0.06113008  -5.19656792   3.58950425 newgto "STO-3G" end
| 92> H    0.20501266  -0.64790334   1.59456629 newgto "STO-3G" end
| 93> H    5.56945257   1.57778441  -3.38429652 newgto "STO-3G" end
| 94> H    1.12354670   1.89383803   3.71522373 newgto "STO-3G" end
| 95> H    1.81897306   2.01186010   1.34611832 newgto "STO-3G" end
| 96> H    5.92719028   2.44791590   0.82066649 newgto "STO-3G" end
| 97> H    6.81528945   2.65405584  -1.48991552 newgto "STO-3G" end
| 98> H    1.77443788  -3.55158281   4.36491036 newgto "STO-3G" end
| 99> H    1.81617943  -1.26163075   3.35779633 newgto "STO-3G" end
|100> N   -0.14289992  -1.09808064  -0.93848044 newgto "def2-TZVP" end
|101> N    2.28240469   0.01500131  -0.60802948 newgto "def2-TZVP" end
|102> O   -4.73183082   0.91523028   1.87656984 
|103> *
|104> 
|105>                          ****END OF INPUT****
================================================================================

                     *******************************
                     * Energy+Gradient Calculation *
                     *******************************

---------------------------------
CARTESIAN COORDINATES (ANGSTROEM)
---------------------------------
  Br     0.198609    3.169726   -0.876550
  C     -2.476489   -1.104427   -1.560572
  C     -4.151363   -2.170833   -0.108891
  C      3.374825   -2.184382   -0.785289
  C      0.933722   -1.954089   -0.866164
  C     -3.137885   -2.535134    0.756453
  C      0.846342   -3.352110   -0.973712
  C     -1.422783   -1.481761   -0.639418
  C      3.256922   -3.578132   -0.889508
  C     -2.184331   -0.418249   -2.763092
  C     -3.842539   -1.439268   -1.283691
  C      2.240084   -1.344765   -0.765343
  C     -1.781065   -2.198135    0.532518
  C      1.990203   -4.165064   -0.983907
  C     -5.970961    0.774820    1.197818
  C     -3.670548    1.687052   -0.176393
  C     -3.660396    1.363387    1.189628
  C     -3.183190   -0.035020   -3.641736
  C     -4.850384   -1.028529   -2.196912
  C     -2.507258    2.138413   -0.798771
  C     -2.470518    1.517898    1.926770
  C     -1.340851    2.257517   -0.056624
  C     -1.315298    1.985136    1.310056
  C     -0.818711   -3.839244    2.162607
  C     -0.797148   -2.560875    1.575130
  C     -4.533372   -0.333170   -3.349271
  C      3.477326    0.693416   -0.803269
  C      4.016701    0.805057   -2.104716
  C      4.256385    0.591294    3.991847
  C      4.637457    0.666277    2.648760
  C      2.989871    1.031542    4.385497
  C      3.759949    1.174814    1.676954
  C      4.196563    1.295370    0.267020
  C      0.093478   -4.194062    3.160058
  C      5.195980    1.499402   -2.361666
  C      0.165762   -1.643533    2.034680
  C      2.113020    1.542061    3.422256
  C      2.496404    1.604649    2.090451
  C      5.390137    1.986074   -0.009544
  C      5.894096    2.100657   -1.305551
  C      1.053611   -3.274967    3.594238
  C      1.079755   -1.994886    3.026860
  Cu     0.463958    0.750157   -0.728311
  H     -1.142441   -0.181197   -2.976153
  H     -6.682058    0.396443    1.938958
  H     -5.188349   -2.427552    0.108277
  H      4.361858   -1.728352   -0.699095
  H     -0.141773   -3.805916   -1.058718
  H     -3.389838   -3.065018    1.676508
  H      4.156023   -4.197406   -0.891105
  H     -6.324645    1.742904    0.815352
  H     -1.545516   -4.573674    1.813472
  H     -4.567175    1.568333   -0.777852
  H     -2.514072    2.375802   -1.859021
  H     -2.463059    1.277427    2.988664
  H      1.883799   -5.247743   -1.070984
  H     -2.929117    0.498350   -4.558687
  H      3.469895    0.328907   -2.920107
  H     -5.890194    0.055622    0.372070
  H     -5.889626   -1.271343   -1.968727
  H     -0.408884    2.134387    1.889368
  H      4.950189    0.186250    4.729605
  H      5.625259    0.318630    2.343664
  H     -5.322128   -0.023919   -4.036784
  H      2.686763    0.975753    5.431627
  H      0.061130   -5.196568    3.589504
  H      0.205013   -0.647903    1.594566
  H      5.569453    1.577784   -3.384297
  H      1.123547    1.893838    3.715224
  H      1.818973    2.011860    1.346118
  H      5.927190    2.447916    0.820666
  H      6.815289    2.654056   -1.489916
  H      1.774438   -3.551583    4.364910
  H      1.816179   -1.261631    3.357796
  N     -0.142900   -1.098081   -0.938480
  N      2.282405    0.015001   -0.608029
  O     -4.731831    0.915230    1.876570

----------------------------
CARTESIAN COORDINATES (A.U.)
----------------------------
  NO LB      ZA    FRAG     MASS         X           Y           Z
   0 Br   35.0000    0    79.900    0.375317    5.989915   -1.656440
   1 C     6.0000    0    12.011   -4.679886   -2.087065   -2.949053
   2 C     6.0000    0    12.011   -7.844939   -4.102280   -0.205774
   3 C     6.0000    0    12.011    6.377496   -4.127884   -1.483981
   4 C     6.0000    0    12.011    1.764479   -3.692692   -1.636812
   5 C     6.0000    0    12.011   -5.929743   -4.790709    1.429488
   6 C     6.0000    0    12.011    1.599354   -6.334570   -1.840049
   7 C     6.0000    0    12.011   -2.688670   -2.800122   -1.208325
   8 C     6.0000    0    12.011    6.154691   -6.761689   -1.680927
   9 C     6.0000    0    12.011   -4.127787   -0.790376   -5.221488
  10 C     6.0000    0    12.011   -7.261346   -2.719823   -2.425825
  11 C     6.0000    0    12.011    4.233145   -2.541237   -1.446289
  12 C     6.0000    0    12.011   -3.365724   -4.153873    1.006313
  13 C     6.0000    0    12.011    3.760939   -7.870829   -1.859315
  14 C     6.0000    0    12.011  -11.283482    1.464197    2.263549
  15 C     6.0000    0    12.011   -6.936330    3.188066   -0.333334
  16 C     6.0000    0    12.011   -6.917145    2.576427    2.248071
  17 C     6.0000    0    12.011   -6.015358   -0.066179   -6.881883
  18 C     6.0000    0    12.011   -9.165898   -1.943637   -4.151562
  19 C     6.0000    0    12.011   -4.738032    4.041016   -1.509459
  20 C     6.0000    0    12.011   -4.668603    2.868412    3.641067
  21 C     6.0000    0    12.011   -2.533842    4.266089   -0.107004
  22 C     6.0000    0    12.011   -2.485554    3.751364    2.475647
  23 C     6.0000    0    12.011   -1.547140   -7.255120    4.086735
  24 C     6.0000    0    12.011   -1.506392   -4.839353    2.976564
  25 C     6.0000    0    12.011   -8.566831   -0.629600   -6.329206
  26 C     6.0000    0    12.011    6.571194    1.310365   -1.517959
  27 C     6.0000    0    12.011    7.590464    1.521337   -3.977337
  28 C     6.0000    0    12.011    8.043402    1.117384    7.543497
  29 C     6.0000    0    12.011    8.763524    1.259082    5.005430
  30 C     6.0000    0    12.011    5.650037    1.949331    8.287389
  31 C     6.0000    0    12.011    7.105274    2.220076    3.168984
  32 C     6.0000    0    12.011    7.930354    2.447895    0.504594
  33 C     6.0000    0    12.011    0.176648   -7.925628    5.971644
  34 C     6.0000    0    12.011    9.818978    2.833459   -4.462902
  35 C     6.0000    0    12.011    0.313245   -3.105828    3.844988
  36 C     6.0000    0    12.011    3.993029    2.914074    6.467126
  37 C     6.0000    0    12.011    4.717520    3.032347    3.950381
  38 C     6.0000    0    12.011   10.185882    3.753135   -0.018035
  39 C     6.0000    0    12.011   11.138227    3.969667   -2.467134
  40 C     6.0000    0    12.011    1.991036   -6.188791    6.792125
  41 C     6.0000    0    12.011    2.040441   -3.769788    5.719937
  42 Cu   29.0000    0    63.550    0.876753    1.417592   -1.376307
  43 H     1.0000    0     1.008   -2.158900   -0.342412   -5.624113
  44 H     1.0000    0     1.008  -12.627260    0.749169    3.664100
  45 H     1.0000    0     1.008   -9.804559   -4.587408    0.204613
  46 H     1.0000    0     1.008    8.242717   -3.266112   -1.321097
  47 H     1.0000    0     1.008   -0.267911   -7.192139   -2.000688
  48 H     1.0000    0     1.008   -6.405865   -5.792045    3.168141
  49 H     1.0000    0     1.008    7.853745   -7.931948   -1.683945
  50 H     1.0000    0     1.008  -11.951847    3.293612    1.540792
  51 H     1.0000    0     1.008   -2.920602   -8.642992    3.426966
  52 H     1.0000    0     1.008   -8.630709    2.963719   -1.469928
  53 H     1.0000    0     1.008   -4.750907    4.489616   -3.513041
  54 H     1.0000    0     1.008   -4.654507    2.413986    5.647757
  55 H     1.0000    0     1.008    3.559865   -9.916798   -2.023866
  56 H     1.0000    0     1.008   -5.535228    0.941745   -8.614670
  57 H     1.0000    0     1.008    6.557152    0.621544   -5.518203
  58 H     1.0000    0     1.008  -11.130854    0.105111    0.703111
  59 H     1.0000    0     1.008  -11.129780   -2.402489   -3.720355
  60 H     1.0000    0     1.008   -0.772679    4.033406    3.570387
  61 H     1.0000    0     1.008    9.354501    0.351961    8.937658
  62 H     1.0000    0     1.008   10.630198    0.602124    4.428882
  63 H     1.0000    0     1.008  -10.057364   -0.045200   -7.628417
  64 H     1.0000    0     1.008    5.077247    1.843905   10.264287
  65 H     1.0000    0     1.008    0.115519   -9.820090    6.783180
  66 H     1.0000    0     1.008    0.387418   -1.224360    3.013294
  67 H     1.0000    0     1.008   10.524740    2.981580   -6.395394
  68 H     1.0000    0     1.008    2.123196    3.578835    7.020755
  69 H     1.0000    0     1.008    3.437361    3.801865    2.543795
  70 H     1.0000    0     1.008   11.200766    4.625891    1.550835
  71 H     1.0000    0     1.008   12.879031    5.015439   -2.815532
  72 H     1.0000    0     1.008    3.353202   -6.711519    8.248485
  73 H     1.0000    0     1.008    3.432082   -2.384137    6.345315
  74 N     7.0000    0    14.007   -0.270042   -2.075072   -1.773471
  75 N     7.0000    0    14.007    4.313120    0.028348   -1.149009
  76 O     8.0000    0    15.999   -8.941864    1.729535    3.546203

--------------------------------
INTERNAL COORDINATES (ANGSTROEM)
--------------------------------
 Br     0   0   0     0.000000000000     0.00000000     0.00000000
 C      1   0   0     5.088459894926     0.00000000     0.00000000
 C      2   1   0     2.459634355715   130.00289726     0.00000000
 C      2   1   3     6.000437490788    67.73786208   247.94443311
 C      4   2   1     2.453275654736     7.49159130   127.27702586
 C      3   2   1     1.381547362691    89.11048830   288.13400970
 C      5   4   2     1.404872387691    88.33814576   127.75957756
 C      2   1   3     1.449552249595    75.58602870   281.89697673
 C      4   2   1     1.402605251383    95.00666215   179.62552886
 C      2   1   3     1.415009668040    66.31980612   147.89488717
 C      3   2   1     1.417996685625    30.57529364   107.46950566
 C      4   2   1     1.411734382325    27.24806874    11.16223230
 C      6   3   2     1.415865785033   122.76273630     1.00626506
 C      9   4   2     1.399277320148   119.86214077   354.16842659
 C      3   2   1     3.700716146109   101.42634217    38.82870465
 C     15   3   2     2.830640344293    71.66998831   350.37275528
 C     16  15   3     1.403878537154    57.26132778   270.97383705
 C     10   2   1     1.384412875771   121.64322179   235.39162069
 C     11   3   2     1.420714953467   121.81669000   179.95087845
 C     16  15   3     1.394390597969   177.43799264   264.55198320
 C     17  16  15     1.408211387577   119.35093135   181.25510635
 C     20  16  17     1.387614189496   119.36239702     0.31804992
 C     21  17  16     1.390388713923   120.44629872   359.94524541
 C     13   6   3     2.505305515238    96.27411578   196.14354532
 C     24  13   6     1.407061210544    30.58036426   219.34948372
 C     19  11   3     1.382734143201   121.22801440   180.99665326
 C     12   4   2     2.384614141948    95.22521305   199.02843457
 C     27  12   4     1.413206311948   106.27179654    71.81586200
 C     27  12   4     4.859063909234    92.83891201   277.62296741
 C     29  27  12     1.398113606523    25.11916593   125.69489382
 C     29  27  12     1.397439435000    97.24174238   282.33640973
 C     30  29  27     1.404647831200   120.91480678    26.70704088
 C     27  12   4     1.423084510477   127.72023617   284.69038592
 C     24  13   6     1.397459397341   151.82004320   220.70099899
 C     28  27  12     1.392421482229   122.17986776   207.70221852
 C     25  24  13     1.407088637850   117.80356864   178.60649634
 C     31  29  27     1.399046575750   119.27765844   348.94343359
 C     37  31  29     1.387300776642   120.27928786     0.26404618
 C     33  27  12     1.406477058597   119.25782734   144.83608052
 C     39  33  27     1.395255786755   121.97153603     0.00000000
 C     34  24  13     1.398249692557   120.19611320   359.13351321
 C     36  25  24     1.394006055304   121.11924394     0.82381567
 Cu     1   2   3     2.438585610477    39.82150148   101.97163244
 H     10   2   1     1.089552056387   117.97768087    54.40310066
 H     15   3   2     1.094585014423   106.46053250   185.46272672
 H      3   2   1     1.090140488815   150.15982991   107.32637805
 H      4   2   1     1.090699873791   144.82770095   351.98765726
 H      7   5   4     1.090658373029   118.44874319   180.68829244
 H      6   3   2     1.091219334424   119.12901154   178.09890799
 H      9   4   2     1.091734861162   119.63929559   174.48264420
 H     15   3   2     1.099345503710   137.41494492    39.21130075
 H     24  13   6     1.090655060789    88.67289082    41.37382792
 H     16  15   3     1.086180001684    64.07111145    89.05011986
 H     20  16  53     1.086522181387   120.06906199     0.83580115
 H     21  17  16     1.088808047650   119.47714621   179.36127505
 H     14   9   4     1.091375187648   120.64740696   179.66530450
 H     18  10   2     1.090796359754   120.05414406   179.62371549
 H     28  27  12     1.091135724937   117.54528360    28.11720883
 H     15   3   2     1.098011123581    34.60674656    85.16679380
 H     19  11   3     1.091352274596   118.47660220     1.18753391
 H     23  21  17     1.086031466169   120.20049220   177.94818706
 H     29  27  12     1.090738842313   141.01138733    86.65874099
 H     30  29  27     1.090730740079   119.89783926   207.24552096
 H     26  19  11     1.091075664979   120.12826908   180.17683718
 H     31  29  27     1.090583912200   120.39696009   168.79340113
 H     34  24  13     1.091095375883   119.66084769   179.92272533
 H     36  25  24     1.089274828302   119.24831997   179.85595121
 H     35  28  27     1.091512102455   119.89975199   181.12753264
 H     37  31  29     1.090245350906   120.10234641   180.30127411
 H     38  37  31     1.085709674406   120.17467544   180.71497790
 H     39  33  27     1.091317662714   118.41534374   179.61117554
 H     40  39  33     1.090338520919   120.25872570   179.17951265
 H     41  34  24     1.090891142208   120.42577310   180.66911588
 H     42  36  25     1.090643314987   119.28984334   179.74207107
 N      8   2   1     1.369214810706   117.88824705   312.74254220
 N     12   4   2     1.369489644551   124.56233354   190.58296010
 O     17  16  15     1.349335497917   124.48556482     0.58755696

---------------------------
INTERNAL COORDINATES (A.U.)
---------------------------
 Br     0   0   0     0.000000000000     0.00000000     0.00000000
 C      1   0   0     9.615795644852     0.00000000     0.00000000
 C      2   1   0     4.648035321885   130.00289726     0.00000000
 C      2   1   3    11.339183541303    67.73786208   247.94443311
 C      4   2   1     4.636019118468     7.49159130   127.27702586
 C      3   2   1     2.610746156528    89.11048830   288.13400970
 C      5   4   2     2.654824065844    88.33814576   127.75957756
 C      2   1   3     2.739256768545    75.58602870   281.89697673
 C      4   2   1     2.650539799113    95.00666215   179.62552886
 C      2   1   3     2.673980749446    66.31980612   147.89488717
 C      3   2   1     2.679625394639    30.57529364   107.46950566
 C      4   2   1     2.667791356435    27.24806874    11.16223230
 C      6   3   2     2.675598576102   122.76273630     1.00626506
 C      9   4   2     2.644250920487   119.86214077   354.16842659
 C      3   2   1     6.993340015527   101.42634217    38.82870465
 C     15   3   2     5.349135034342    71.66998831   350.37275528
 C     16  15   3     2.652945960511    57.26132778   270.97383705
 C     10   2   1     2.616161191481   121.64322179   235.39162069
 C     11   3   2     2.684762176419   121.81669000   179.95087845
 C     16  15   3     2.635016353877   177.43799264   264.55198320
 C     17  16  15     2.661133861190   119.35093135   181.25510635
 C     20  16  17     2.622210797690   119.36239702     0.31804992
 C     21  17  16     2.627453889010   120.44629872   359.94524541
 C     13   6   3     4.734341305602    96.27411578   196.14354532
 C     24  13   6     2.658960341592    30.58036426   219.34948372
 C     19  11   3     2.612988846672   121.22801440   180.99665326
 C     12   4   2     4.506267663358    95.22521305   199.02843457
 C     27  12   4     2.670572900310   106.27179654    71.81586200
 C     27  12   4     9.182300055673    92.83891201   277.62296741
 C     29  27  12     2.642051820437    25.11916593   125.69489382
 C     29  27  12     2.640777820891    97.24174238   282.33640973
 C     30  29  27     2.654399715574   120.91480678    26.70704088
 C     27  12   4     2.689239990227   127.72023617   284.69038592
 C     24  13   6     2.640815544250   151.82004320   220.70099899
 C     28  27  12     2.631295264402   122.17986776   207.70221852
 C     25  24  13     2.659012171688   117.80356864   178.60649634
 C     31  29  27     2.643814876767   119.27765844   348.94343359
 C     37  31  29     2.621618533229   120.27928786     0.26404618
 C     33  27  12     2.657856454391   119.25782734   144.83608052
 C     39  33  27     2.636651323735   121.97153603     0.00000000
 C     34  24  13     2.642308985772   120.19611320   359.13351321
 C     36  25  24     2.634289673552   121.11924394     0.82381567
 Cu     1   2   3     4.608258957923    39.82150148   101.97163244
 H     10   2   1     2.058954995223   117.97768087    54.40310066
 H     15   3   2     2.068465907553   106.46053250   185.46272672
 H      3   2   1     2.060066971359   150.15982991   107.32637805
 H      4   2   1     2.061124055768   144.82770095   351.98765726
 H      7   5   4     2.061045630693   118.44874319   180.68829244
 H      6   3   2     2.062105694102   119.12901154   178.09890799
 H      9   4   2     2.063079898451   119.63929559   174.48264420
 H     15   3   2     2.077461928569   137.41494492    39.21130075
 H     24  13   6     2.061039371466    88.67289082    41.37382792
 H     16  15   3     2.052582735324    64.07111145    89.05011986
 H     20  16  53     2.053229361252   120.06906199     0.83580115
 H     21  17  16     2.057549022469   119.47714621   179.36127505
 H     14   9   4     2.062400214012   120.64740696   179.66530450
 H     18  10   2     2.061306387813   120.05414406   179.62371549
 H     28  27  12     2.061947695069   117.54528360    28.11720883
 H     15   3   2     2.074940315567    34.60674656    85.16679380
 H     19  11   3     2.062356914618   118.47660220     1.18753391
 H     23  21  17     2.052302043881   120.20049220   177.94818706
 H     29  27  12     2.061197695601   141.01138733    86.65874099
 H     30  29  27     2.061182384598   119.89783926   207.24552096
 H     26  19  11     2.061834198197   120.12826908   180.17683718
 H     31  29  27     2.060904920119   120.39696009   168.79340113
 H     34  24  13     2.061871446407   119.66084769   179.92272533
 H     36  25  24     2.058431110064   119.24831997   179.85595121
 H     35  28  27     2.062658945501   119.89975199   181.12753264
 H     37  31  29     2.060265131993   120.10234641   180.30127411
 H     38  37  31     2.051693945576   120.17467544   180.71497790
 H     39  33  27     2.062291507640   118.41534374   179.61117554
 H     40  39  33     2.060441197802   120.25872570   179.17951265
 H     41  34  24     2.061485500693   120.42577310   180.66911588
 H     42  36  25     2.061017175118   119.28984334   179.74207107
 N      8   2   1     2.587441010744   117.88824705   312.74254220
 N     12   4   2     2.587960371443   124.56233354   190.58296010
 O     17  16  15     2.549874553841   124.48556482     0.58755696

---------------------
BASIS SET INFORMATION
---------------------
There are 7 groups of distinct atoms

 Group   1 Type Br  : 17s13p8d1f contracted to 6s5p4d1f pattern {842111/64111/5111/1}
 Group   2 Type C   : 7s4p1d contracted to 3s2p1d pattern {511/31/1}
 Group   3 Type C   : 11s6p2d1f contracted to 5s3p2d1f pattern {62111/411/11/1}
 Group   4 Type Cu  : 17s11p7d1f contracted to 6s4p4d1f pattern {842111/6311/4111/1}
 Group   5 Type H   : 3s contracted to 1s pattern {3}
 Group   6 Type N   : 11s6p2d1f contracted to 5s3p2d1f pattern {62111/411/11/1}
 Group   7 Type O   : 7s4p1d contracted to 3s2p1d pattern {511/31/1}

Atom   0Br   basis set group =>   1
Atom   1C    basis set group =>   2
Atom   2C    basis set group =>   2
Atom   3C    basis set group =>   2
Atom   4C    basis set group =>   2
Atom   5C    basis set group =>   2
Atom   6C    basis set group =>   2
Atom   7C    basis set group =>   2
Atom   8C    basis set group =>   2
Atom   9C    basis set group =>   2
Atom  10C    basis set group =>   2
Atom  11C    basis set group =>   2
Atom  12C    basis set group =>   2
Atom  13C    basis set group =>   2
Atom  14C    basis set group =>   2
Atom  15C    basis set group =>   2
Atom  16C    basis set group =>   2
Atom  17C    basis set group =>   2
Atom  18C    basis set group =>   2
Atom  19C    basis set group =>   2
Atom  20C    basis set group =>   2
Atom  21C    basis set group =>   3
Atom  22C    basis set group =>   2
Atom  23C    basis set group =>   2
Atom  24C    basis set group =>   2
Atom  25C    basis set group =>   2
Atom  26C    basis set group =>   2
Atom  27C    basis set group =>   2
Atom  28C    basis set group =>   2
Atom  29C    basis set group =>   2
Atom  30C    basis set group =>   2
Atom  31C    basis set group =>   2
Atom  32C    basis set group =>   2
Atom  33C    basis set group =>   2
Atom  34C    basis set group =>   2
Atom  35C    basis set group =>   2
Atom  36C    basis set group =>   2
Atom  37C    basis set group =>   3
Atom  38C    basis set group =>   2
Atom  39C    basis set group =>   2
Atom  40C    basis set group =>   2
Atom  41C    basis set group =>   2
Atom  42Cu   basis set group =>   4
Atom  43H    basis set group =>   5
Atom  44H    basis set group =>   5
Atom  45H    basis set group =>   5
Atom  46H    basis set group =>   5
Atom  47H    basis set group =>   5
Atom  48H    basis set group =>   5
Atom  49H    basis set group =>   5
Atom  50H    basis set group =>   5
Atom  51H    basis set group =>   5
Atom  52H    basis set group =>   5
Atom  53H    basis set group =>   5
Atom  54H    basis set group =>   5
Atom  55H    basis set group =>   5
Atom  56H    basis set group =>   5
Atom  57H    basis set group =>   5
Atom  58H    basis set group =>   5
Atom  59H    basis set group =>   5
Atom  60H    basis set group =>   5
Atom  61H    basis set group =>   5
Atom  62H    basis set group =>   5
Atom  63H    basis set group =>   5
Atom  64H    basis set group =>   5
Atom  65H    basis set group =>   5
Atom  66H    basis set group =>   5
Atom  67H    basis set group =>   5
Atom  68H    basis set group =>   5
Atom  69H    basis set group =>   5
Atom  70H    basis set group =>   5
Atom  71H    basis set group =>   5
Atom  72H    basis set group =>   5
Atom  73H    basis set group =>   5
Atom  74N    basis set group =>   6
Atom  75N    basis set group =>   6
Atom  76O    basis set group =>   7
---------------------------------
AUXILIARY/J BASIS SET INFORMATION
---------------------------------
There are 6 groups of distinct atoms

 Group   1 Type Br  : 19s5p5d3f1g contracted to 8s4p3d2f1g pattern {121111111/2111/311/21/1}
 Group   2 Type C   : 8s3p3d contracted to 6s3p3d pattern {311111/111/111}
 Group   3 Type Cu  : 19s5p5d3f3g contracted to 8s5p4d3f3g pattern {121111111/11111/2111/111/111}
 Group   4 Type H   : 5s2p contracted to 3s1p pattern {311/2}
 Group   5 Type N   : 8s3p3d contracted to 6s3p3d pattern {311111/111/111}
 Group   6 Type O   : 8s3p3d contracted to 6s3p3d pattern {311111/111/111}

Atom   0Br   basis set group =>   1
Atom   1C    basis set group =>   2
Atom   2C    basis set group =>   2
Atom   3C    basis set group =>   2
Atom   4C    basis set group =>   2
Atom   5C    basis set group =>   2
Atom   6C    basis set group =>   2
Atom   7C    basis set group =>   2
Atom   8C    basis set group =>   2
Atom   9C    basis set group =>   2
Atom  10C    basis set group =>   2
Atom  11C    basis set group =>   2
Atom  12C    basis set group =>   2
Atom  13C    basis set group =>   2
Atom  14C    basis set group =>   2
Atom  15C    basis set group =>   2
Atom  16C    basis set group =>   2
Atom  17C    basis set group =>   2
Atom  18C    basis set group =>   2
Atom  19C    basis set group =>   2
Atom  20C    basis set group =>   2
Atom  21C    basis set group =>   2
Atom  22C    basis set group =>   2
Atom  23C    basis set group =>   2
Atom  24C    basis set group =>   2
Atom  25C    basis set group =>   2
Atom  26C    basis set group =>   2
Atom  27C    basis set group =>   2
Atom  28C    basis set group =>   2
Atom  29C    basis set group =>   2
Atom  30C    basis set group =>   2
Atom  31C    basis set group =>   2
Atom  32C    basis set group =>   2
Atom  33C    basis set group =>   2
Atom  34C    basis set group =>   2
Atom  35C    basis set group =>   2
Atom  36C    basis set group =>   2
Atom  37C    basis set group =>   2
Atom  38C    basis set group =>   2
Atom  39C    basis set group =>   2
Atom  40C    basis set group =>   2
Atom  41C    basis set group =>   2
Atom  42Cu   basis set group =>   3
Atom  43H    basis set group =>   4
Atom  44H    basis set group =>   4
Atom  45H    basis set group =>   4
Atom  46H    basis set group =>   4
Atom  47H    basis set group =>   4
Atom  48H    basis set group =>   4
Atom  49H    basis set group =>   4
Atom  50H    basis set group =>   4
Atom  51H    basis set group =>   4
Atom  52H    basis set group =>   4
Atom  53H    basis set group =>   4
Atom  54H    basis set group =>   4
Atom  55H    basis set group =>   4
Atom  56H    basis set group =>   4
Atom  57H    basis set group =>   4
Atom  58H    basis set group =>   4
Atom  59H    basis set group =>   4
Atom  60H    basis set group =>   4
Atom  61H    basis set group =>   4
Atom  62H    basis set group =>   4
Atom  63H    basis set group =>   4
Atom  64H    basis set group =>   4
Atom  65H    basis set group =>   4
Atom  66H    basis set group =>   4
Atom  67H    basis set group =>   4
Atom  68H    basis set group =>   4
Atom  69H    basis set group =>   4
Atom  70H    basis set group =>   4
Atom  71H    basis set group =>   4
Atom  72H    basis set group =>   4
Atom  73H    basis set group =>   4
Atom  74N    basis set group =>   5
Atom  75N    basis set group =>   5
Atom  76O    basis set group =>   6

Checking for AutoStart:
The File: CWMHSQPVYVHHDK-QJPJQTDYNZXKQF_0_1-IRC.gbw exists
Trying to determine its content:
     ... Fine, the file contains calculation information
     ... Fine, the calculation information was read
     ... Fine, the file contains a basis set
     ... Fine, the basis set was read
     ... Fine, the file contains a geometry
     ... Fine, the geometry was read
     ... Fine, the file contains a set of orbitals
     ... Fine, the orbitals can be read
     => possible old guess file was deleted
     => GBW file was renamed to GES file
     => GES file is set as startup file
     => Guess is set to MORead
     ... now leaving AutoStart



           ************************************************************
           *        Program running with 32 parallel MPI-processes    *
           *              working on a common directory               *
           ************************************************************
------------------------------------------------------------------------------
                           ORCA GTO INTEGRAL CALCULATION
                           -- RI-GTO INTEGRALS CHOSEN --
------------------------------------------------------------------------------
------------------------------------------------------------------------------
                   ___                                                        
                  /   \      - P O W E R E D   B Y -                         
                 /     \                                                     
                 |  |  |   _    _      __       _____    __    __             
                 |  |  |  | |  | |    /  \     |  _  \  |  |  /  |          
                  \  \/   | |  | |   /    \    | | | |  |  | /  /          
                 / \  \   | |__| |  /  /\  \   | |_| |  |  |/  /          
                |  |  |   |  __  | /  /__\  \  |    /   |      \           
                |  |  |   | |  | | |   __   |  |    \   |  |\   \          
                \     /   | |  | | |  |  |  |  | |\  \  |  | \   \       
                 \___/    |_|  |_| |__|  |__|  |_| \__\ |__|  \__/        
                                                                              
                      - O R C A' S   B I G   F R I E N D -                    
                                      &                                       
                       - I N T E G R A L  F E E D E R -                       
                                                                              
 v1 FN, 2020, v2 2021                                                         
------------------------------------------------------------------------------


Reading SHARK input file CWMHSQPVYVHHDK-QJPJQTDYNZXKQF_0_1-IRC.SHARKINP.tmp ... ok
----------------------
SHARK INTEGRAL PACKAGE
----------------------

Number of atoms                             ...     77
Number of basis functions                   ...    808
Number of shells                            ...    346
Maximum angular momentum                    ...      3
Integral batch strategy                     ... SHARK/LIBINT Hybrid
RI-J (if used) integral strategy            ... SPLIT-RIJ (Revised 2003 algorithm where possible)
Printlevel                                  ...      1
Contraction scheme used                     ... SEGMENTED contraction
Coulomb Range Separation                    ... NOT USED
Exchange Range Separation                   ... NOT USED
Finite Nucleus Model                        ... NOT USED
Auxiliary Coulomb fitting basis             ... AVAILABLE
   # of basis functions in Aux-J            ...   1655
   # of shells in Aux-J                     ...    693
   Maximum angular momentum in Aux-J        ...      4
Auxiliary J/K fitting basis                 ... NOT available
Auxiliary Correlation fitting basis         ... NOT available
Auxiliary 'external' fitting basis          ... NOT available
Integral threshold                          ...     2.500000e-11
Primitive cut-off                           ...     2.500000e-12
Primitive pair pre-selection threshold      ...     2.500000e-12

Calculating pre-screening integrals         ... done (  0.9 sec) Dimension = 346
Organizing shell pair data                  ... done (  0.2 sec)
Shell pair information
Total number of shell pairs                 ...     60031
Shell pairs after pre-screening             ...     40212
Total number of primitive shell pairs       ...    266182
Primitive shell pairs kept                  ...     98047
          la=0 lb=0:  10894 shell pairs
          la=1 lb=0:  13315 shell pairs
          la=1 lb=1:   4112 shell pairs
          la=2 lb=0:   5883 shell pairs
          la=2 lb=1:   3829 shell pairs
          la=2 lb=2:    774 shell pairs
          la=3 lb=0:    714 shell pairs
          la=3 lb=1:    479 shell pairs
          la=3 lb=2:    192 shell pairs
          la=3 lb=3:     20 shell pairs

Calculating one electron integrals          ... done (  0.0 sec)
Calculating RI/J V-Matrix + Cholesky decomp.... done (  0.5 sec)
Calculating Nuclear repulsion               ... done (  0.0 sec) ENN=   7492.535259618296 Eh

SHARK setup successfully completed in   1.7 seconds

Maximum memory used throughout the entire GTOINT-calculation: 66.3 MB


           ************************************************************
           *        Program running with 32 parallel MPI-processes    *
           *              working on a common directory               *
           ************************************************************
-------------------------------------------------------------------------------
                                 ORCA SCF
-------------------------------------------------------------------------------

------------
SCF SETTINGS
------------
Hamiltonian:
 Density Functional     Method          .... DFT(GTOs)
 Exchange Functional    Exchange        .... B973C
 Correlation Functional Correlation     .... B973C
 Gradients option       PostSCFGGA      .... off
   Density functional embedding theory  .... OFF
 RI-approximation to the Coulomb term is turned on
   Number of AuxJ basis functions       .... 1655


General Settings:
 Integral files         IntName         .... CWMHSQPVYVHHDK-QJPJQTDYNZXKQF_0_1-IRC
 Hartree-Fock type      HFTyp           .... RHF
 Total Charge           Charge          ....   -1
 Multiplicity           Mult            ....    1
 Number of Electrons    NEL             ....  364
 Basis Dimension        Dim             ....  808
 Nuclear Repulsion      ENuc            ....   7492.5352596183 Eh

Convergence Acceleration:
 DIIS                   CNVDIIS         .... on
   Start iteration      DIISMaxIt       ....    12
   Startup error        DIISStart       ....  0.200000
   # of expansion vecs  DIISMaxEq       ....     5
   Bias factor          DIISBfac        ....   1.050
   Max. coefficient     DIISMaxC        ....  10.000
 Trust-Rad. Augm. Hess. CNVTRAH         .... auto
   Auto Start mean grad. ratio tolernc. ....  1.125000
   Auto Start start iteration           ....     1
   Auto Start num. interpolation iter.  ....    10
   Max. Number of Micro iterations      ....    16
   Max. Number of Macro iterations      .... Maxiter - #DIIS iter
   Number of Davidson start vectors     ....     2
   Converg. threshold I  (grad. norm)   ....   1.000e-05
   Converg. threshold II (energy diff.) ....   1.000e-08
   Grad. Scal. Fac. for Micro threshold ....   0.100
   Minimum threshold for Micro iter.    ....   0.010
   NR start threshold (gradient norm)   ....   0.001
   Initial trust radius                 ....   0.400
   Minimum AH scaling param. (alpha)    ....   1.000
   Maximum AH scaling param. (alpha)    .... 1000.000
   Orbital update algorithm             .... Taylor
   White noise on init. David. guess    .... on
   Maximum white noise                  ....   0.010
   Quad. conv. algorithm                .... NR
   COSX micro iterations for RIJONX calc.... off
 SOSCF                  CNVSOSCF        .... off
 Level Shifting         CNVShift        .... on
   Level shift para.    LevelShift      ....    0.2500
   Turn off err/grad.   ShiftErr        ....    0.0010
 Zerner damping         CNVZerner       .... off
 Static damping         CNVDamp         .... on
   Fraction old density DampFac         ....    0.7000
   Max. Damping (<1)    DampMax         ....    0.9800
   Min. Damping (>=0)   DampMin         ....    0.0000
   Turn off err/grad.   DampErr         ....    0.1000
 Fernandez-Rico         CNVRico         .... off

SCF Procedure:
 Maximum # iterations   MaxIter         ....   500
 SCF integral mode      SCFMode         .... Direct
   Integral package                     .... SHARK and LIBINT hybrid scheme
 Reset frequency        DirectResetFreq ....    20
 Integral Threshold     Thresh          ....  2.500e-11 Eh
 Primitive CutOff       TCut            ....  2.500e-12 Eh

Convergence Tolerance:
 Convergence Check Mode ConvCheckMode   .... Total+1el-Energy
 Convergence forced     ConvForced      .... 0
 Energy Change          TolE            ....  1.000e-08 Eh
 1-El. energy change                    ....  1.000e-05 Eh
 DIIS Error             TolErr          ....  5.000e-07


Diagonalization of the overlap matrix:
Smallest eigenvalue                        ... 1.902e-04
Time for diagonalization                   ...    0.104 sec
Threshold for overlap eigenvalues          ... 1.000e-08
Number of eigenvalues below threshold      ... 0
Time for construction of square roots      ...    0.084 sec
Total time needed                          ...    0.190 sec

---------------------
INITIAL GUESS: MOREAD
---------------------
Guess MOs are being read from file: CWMHSQPVYVHHDK-QJPJQTDYNZXKQF_0_1-IRC.ges
Input Geometry matches current geometry (good)
Input basis set matches current basis set (good)
MOs were renormalized
MOs were reorthogonalized (Cholesky)
                      ------------------
                      INITIAL GUESS DONE (   0.2 sec)
                      ------------------
-------------------
DFT GRID GENERATION
-------------------

General Integration Accuracy     IntAcc      ... 4.388
Radial Grid Type                 RadialGrid  ... OptM3 with GC (2021)
Angular Grid (max. ang.)         AngularGrid ... 4 (Lebedev-302)
Angular grid pruning method      GridPruning ... 4 (adaptive)
Weight generation scheme         WeightScheme... Becke
Basis function cutoff            BFCut       ... 1.0000e-11
Integration weight cutoff        WCut        ... 1.0000e-14
Angular grids for H and He will be reduced by one unit
Partially contracted basis set               ... off
Rotationally invariant grid construction     ... off

Total number of grid points                  ...   379175
Total number of batches                      ...     5963
Average number of points per batch           ...       63
Average number of grid points per atom       ...     4924
Time for grid setup =    1.980 sec


--------------------
CPCM SOLVATION MODEL
--------------------
CPCM parameters:
  Epsilon                                         ...      47.2000
  Refrac                                          ...       1.4790
  Rsolv                                           ...       1.3000
  Surface type                                    ... GAUSSIAN VDW
  Epsilon function type                           ...         CPCM
Radii:
 Radius for Br used is    4.1952 Bohr (=   2.2200 Ang.)
 Radius for C  used is    3.8550 Bohr (=   2.0400 Ang.)
 Radius for Cu used is    3.1747 Bohr (=   1.6800 Ang.)
 Radius for H  used is    2.4944 Bohr (=   1.3200 Ang.)
 Radius for N  used is    3.5149 Bohr (=   1.8600 Ang.)
 Radius for O  used is    3.4469 Bohr (=   1.8240 Ang.)
Calculating surface                               ...        done! (  0.0s)
GEPOL surface points                              ...         3976
GEPOL Volume                                      ...    4918.0754
GEPOL Surface-area                                ...    2173.6361
Calculating surface distance matrix               ...        done! (  0.1s)
Performing Cholesky decomposition & store         ...        done! (  0.9s)
Overall time for CPCM initialization              ...                 1.0s
--------------
SCF ITERATIONS
--------------
ITER       Energy         Delta-E        Max-DP      RMS-DP      [F,P]     Damp
               ***  Starting incremental Fock matrix formation  ***
  0  -5979.0066484125   0.000000000000 0.00000253  0.00000003  0.0000009 0.7000
  1  -5979.0066483805   0.000000032044 0.00000293  0.00000003  0.0000003 0.7000
                               ***Turning on DIIS***
                            ***DIIS convergence achieved***

               *****************************************************
               *                     SUCCESS                       *
               *           SCF CONVERGED AFTER   2 CYCLES          *
               *****************************************************


----------------
TOTAL SCF ENERGY
----------------

Total Energy       :        -5979.00664836 Eh         -162697.04226 eV

Components:
Nuclear Repulsion  :         7492.53525962 Eh          203882.24959 eV
Electronic Energy  :       -13471.54190798 Eh         -366579.29185 eV
One Electron Energy:       -23243.97680275 Eh         -632500.76452 eV
Two Electron Energy:         9772.43489477 Eh          265921.47267 eV
CPCM Dielectric    :           -0.09774384 Eh              -2.65975 eV

Virial components:
Potential Energy   :       -11937.87736224 Eh         -324846.15789 eV
Kinetic Energy     :         5958.87071388 Eh          162149.11563 eV
Virial Ratio       :            2.00337915


DFT components:
N(Alpha)           :      182.000153093182 electrons
N(Beta)            :      182.000153093182 electrons
N(Total)           :      364.000306186364 electrons
E(XC)              :     -414.957827041596 Eh       
DFET-embed. en.    :        0.000000000000 Eh       
CPCM Solvation Model Properties:
Surface-charge          :            0.96239860
Charge-correction       :           -0.00365911 Eh              -0.09957 eV
Free-energy (cav+disp)  :  This term is not implemented in the current solvation scheme

---------------
SCF CONVERGENCE
---------------

  Last Energy change         ...    2.2681e-08  Tolerance :   1.0000e-08
  Last MAX-Density change    ...    4.8361e-06  Tolerance :   1.0000e-07
  Last RMS-Density change    ...    2.5513e-08  Tolerance :   5.0000e-09
  Last DIIS Error            ...    1.8795e-07  Tolerance :   5.0000e-07

             **** THE GBW FILE WAS UPDATED (CWMHSQPVYVHHDK-QJPJQTDYNZXKQF_0_1-IRC.gbw) ****
             **** DENSITY CWMHSQPVYVHHDK-QJPJQTDYNZXKQF_0_1-IRC.scfp WAS UPDATED ****
             **** ENERGY FILE WAS UPDATED (CWMHSQPVYVHHDK-QJPJQTDYNZXKQF_0_1-IRC.en.tmp) ****
             **** THE GBW FILE WAS UPDATED (CWMHSQPVYVHHDK-QJPJQTDYNZXKQF_0_1-IRC.gbw) ****
             **** DENSITY CWMHSQPVYVHHDK-QJPJQTDYNZXKQF_0_1-IRC.scfp WAS UPDATED ****
----------------
ORBITAL ENERGIES
----------------

  NO   OCC          E(Eh)            E(eV) 
   0   2.0000    -480.871921    -13085.1902 
   1   2.0000    -321.325612     -8743.7144 
   2   2.0000     -61.936820     -1685.3865 
   3   2.0000     -55.890960     -1520.8703 
   4   2.0000     -55.887498     -1520.7761 
   5   2.0000     -55.886830     -1520.7579 
   6   2.0000     -38.293030     -1042.0063 
   7   2.0000     -33.615582      -914.7265 
   8   2.0000     -33.615229      -914.7169 
   9   2.0000     -33.614933      -914.7088 
  10   2.0000     -18.781580      -511.0728 
  11   2.0000     -13.940963      -379.3529 
  12   2.0000     -13.935078      -379.1927 
  13   2.0000      -9.966873      -271.2124 
  14   2.0000      -9.947772      -270.6926 
  15   2.0000      -9.935567      -270.3605 
  16   2.0000      -9.923051      -270.0199 
  17   2.0000      -9.922071      -269.9933 
  18   2.0000      -9.915021      -269.8014 
  19   2.0000      -9.911997      -269.7192 
  20   2.0000      -9.907361      -269.5930 
  21   2.0000      -9.905300      -269.5369 
  22   2.0000      -9.904560      -269.5168 
  23   2.0000      -9.903512      -269.4883 
  24   2.0000      -9.902573      -269.4627 
  25   2.0000      -9.900473      -269.4056 
  26   2.0000      -9.899595      -269.3817 
  27   2.0000      -9.898654      -269.3561 
  28   2.0000      -9.898246      -269.3450 
  29   2.0000      -9.897882      -269.3350 
  30   2.0000      -9.897154      -269.3152 
  31   2.0000      -9.896811      -269.3059 
  32   2.0000      -9.894243      -269.2360 
  33   2.0000      -9.894028      -269.2302 
  34   2.0000      -9.893249      -269.2090 
  35   2.0000      -9.892701      -269.1941 
  36   2.0000      -9.892434      -269.1868 
  37   2.0000      -9.891943      -269.1735 
  38   2.0000      -9.891619      -269.1646 
  39   2.0000      -9.891313      -269.1563 
  40   2.0000      -9.891291      -269.1557 
  41   2.0000      -9.890598      -269.1369 
  42   2.0000      -9.889932      -269.1187 
  43   2.0000      -9.888428      -269.0778 
  44   2.0000      -9.888329      -269.0751 
  45   2.0000      -9.887942      -269.0646 
  46   2.0000      -9.887682      -269.0575 
  47   2.0000      -9.885541      -268.9993 
  48   2.0000      -9.881339      -268.8849 
  49   2.0000      -9.879078      -268.8234 
  50   2.0000      -9.867639      -268.5121 
  51   2.0000      -9.865965      -268.4666 
  52   2.0000      -9.864905      -268.4377 
  53   2.0000      -9.863972      -268.4123 
  54   2.0000      -8.462289      -230.2706 
  55   2.0000      -6.345388      -172.6668 
  56   2.0000      -6.335699      -172.4031 
  57   2.0000      -6.333726      -172.3495 
  58   2.0000      -4.080688      -111.0412 
  59   2.0000      -2.622113       -71.3513 
  60   2.0000      -2.619472       -71.2795 
  61   2.0000      -2.615286       -71.1655 
  62   2.0000      -2.550845       -69.4120 
  63   2.0000      -2.549230       -69.3681 
  64   2.0000      -2.547709       -69.3267 
  65   2.0000      -2.540240       -69.1234 
  66   2.0000      -2.540224       -69.1230 
  67   2.0000      -0.974855       -26.5271 
  68   2.0000      -0.826609       -22.4932 
  69   2.0000      -0.805843       -21.9281 
  70   2.0000      -0.793268       -21.5859 
  71   2.0000      -0.773207       -21.0400 
  72   2.0000      -0.765598       -20.8330 
  73   2.0000      -0.761939       -20.7334 
  74   2.0000      -0.746121       -20.3030 
  75   2.0000      -0.738249       -20.0888 
  76   2.0000      -0.724026       -19.7017 
  77   2.0000      -0.713924       -19.4269 
  78   2.0000      -0.689196       -18.7540 
  79   2.0000      -0.683520       -18.5995 
  80   2.0000      -0.679208       -18.4822 
  81   2.0000      -0.672868       -18.3097 
  82   2.0000      -0.670565       -18.2470 
  83   2.0000      -0.665846       -18.1186 
  84   2.0000      -0.656995       -17.8778 
  85   2.0000      -0.649675       -17.6786 
  86   2.0000      -0.638238       -17.3673 
  87   2.0000      -0.636976       -17.3330 
  88   2.0000      -0.629138       -17.1197 
  89   2.0000      -0.619473       -16.8567 
  90   2.0000      -0.611528       -16.6405 
  91   2.0000      -0.593653       -16.1541 
  92   2.0000      -0.557271       -15.1641 
  93   2.0000      -0.552838       -15.0435 
  94   2.0000      -0.548625       -14.9288 
  95   2.0000      -0.542773       -14.7696 
  96   2.0000      -0.540981       -14.7208 
  97   2.0000      -0.530588       -14.4380 
  98   2.0000      -0.528334       -14.3767 
  99   2.0000      -0.525692       -14.3048 
 100   2.0000      -0.521104       -14.1800 
 101   2.0000      -0.509154       -13.8548 
 102   2.0000      -0.508332       -13.8324 
 103   2.0000      -0.489851       -13.3295 
 104   2.0000      -0.485804       -13.2194 
 105   2.0000      -0.481589       -13.1047 
 106   2.0000      -0.460765       -12.5381 
 107   2.0000      -0.457571       -12.4511 
 108   2.0000      -0.447825       -12.1859 
 109   2.0000      -0.441343       -12.0096 
 110   2.0000      -0.440123       -11.9763 
 111   2.0000      -0.436290       -11.8721 
 112   2.0000      -0.425340       -11.5741 
 113   2.0000      -0.419540       -11.4163 
 114   2.0000      -0.417471       -11.3600 
 115   2.0000      -0.415605       -11.3092 
 116   2.0000      -0.406706       -11.0670 
 117   2.0000      -0.403204       -10.9718 
 118   2.0000      -0.402793       -10.9606 
 119   2.0000      -0.396452       -10.7880 
 120   2.0000      -0.392503       -10.6806 
 121   2.0000      -0.390960       -10.6386 
 122   2.0000      -0.389354       -10.5949 
 123   2.0000      -0.386212       -10.5094 
 124   2.0000      -0.385387       -10.4869 
 125   2.0000      -0.377868       -10.2823 
 126   2.0000      -0.373125       -10.1532 
 127   2.0000      -0.370503       -10.0819 
 128   2.0000      -0.367294        -9.9946 
 129   2.0000      -0.364219        -9.9109 
 130   2.0000      -0.363593        -9.8939 
 131   2.0000      -0.360968        -9.8224 
 132   2.0000      -0.359207        -9.7745 
 133   2.0000      -0.355816        -9.6823 
 134   2.0000      -0.355292        -9.6680 
 135   2.0000      -0.349866        -9.5203 
 136   2.0000      -0.342358        -9.3160 
 137   2.0000      -0.338878        -9.2214 
 138   2.0000      -0.335790        -9.1373 
 139   2.0000      -0.330245        -8.9864 
 140   2.0000      -0.327706        -8.9173 
 141   2.0000      -0.324305        -8.8248 
 142   2.0000      -0.321862        -8.7583 
 143   2.0000      -0.319851        -8.7036 
 144   2.0000      -0.318294        -8.6612 
 145   2.0000      -0.315559        -8.5868 
 146   2.0000      -0.307482        -8.3670 
 147   2.0000      -0.307288        -8.3617 
 148   2.0000      -0.302426        -8.2294 
 149   2.0000      -0.298912        -8.1338 
 150   2.0000      -0.293276        -7.9804 
 151   2.0000      -0.292039        -7.9468 
 152   2.0000      -0.289014        -7.8645 
 153   2.0000      -0.287163        -7.8141 
 154   2.0000      -0.283911        -7.7256 
 155   2.0000      -0.282717        -7.6931 
 156   2.0000      -0.279731        -7.6119 
 157   2.0000      -0.277681        -7.5561 
 158   2.0000      -0.275502        -7.4968 
 159   2.0000      -0.270635        -7.3643 
 160   2.0000      -0.266820        -7.2605 
 161   2.0000      -0.255960        -6.9650 
 162   2.0000      -0.241662        -6.5760 
 163   2.0000      -0.235630        -6.4118 
 164   2.0000      -0.234212        -6.3732 
 165   2.0000      -0.232373        -6.3232 
 166   2.0000      -0.229011        -6.2317 
 167   2.0000      -0.222271        -6.0483 
 168   2.0000      -0.216131        -5.8812 
 169   2.0000      -0.214118        -5.8265 
 170   2.0000      -0.209830        -5.7098 
 171   2.0000      -0.203755        -5.5445 
 172   2.0000      -0.196782        -5.3547 
 173   2.0000      -0.195122        -5.3095 
 174   2.0000      -0.187304        -5.0968 
 175   2.0000      -0.184417        -5.0183 
 176   2.0000      -0.181209        -4.9310 
 177   2.0000      -0.178885        -4.8677 
 178   2.0000      -0.170315        -4.6345 
 179   2.0000      -0.144685        -3.9371 
 180   2.0000      -0.129924        -3.5354 
 181   2.0000      -0.108241        -2.9454 
 182   0.0000      -0.054554        -1.4845 
 183   0.0000      -0.050897        -1.3850 
 184   0.0000      -0.045516        -1.2385 
 185   0.0000      -0.040351        -1.0980 
 186   0.0000      -0.034405        -0.9362 
 187   0.0000      -0.029050        -0.7905 
 188   0.0000      -0.027946        -0.7605 
 189   0.0000      -0.023956        -0.6519 
 190   0.0000      -0.017993        -0.4896 
 191   0.0000      -0.008574        -0.2333 
 192   0.0000      -0.004654        -0.1267 
 193   0.0000       0.009596         0.2611 
 194   0.0000       0.016073         0.4374 
 195   0.0000       0.022038         0.5997 
 196   0.0000       0.031189         0.8487 
 197   0.0000       0.065018         1.7692 
 198   0.0000       0.073496         1.9999 
 199   0.0000       0.085848         2.3360 
 200   0.0000       0.096084         2.6146 
 201   0.0000       0.103979         2.8294 
 202   0.0000       0.109760         2.9867 
 203   0.0000       0.114922         3.1272 
 204   0.0000       0.123615         3.3637 
 205   0.0000       0.127581         3.4717 
 206   0.0000       0.137189         3.7331 
 207   0.0000       0.143819         3.9135 
 208   0.0000       0.147662         4.0181 
 209   0.0000       0.152162         4.1405 
 210   0.0000       0.156158         4.2493 
 211   0.0000       0.161417         4.3924 
 212   0.0000       0.168638         4.5889 
 213   0.0000       0.169883         4.6227 
 214   0.0000       0.176523         4.8034 
 215   0.0000       0.182122         4.9558 
 216   0.0000       0.186775         5.0824 
 217   0.0000       0.191269         5.2047 
 218   0.0000       0.192486         5.2378 
 219   0.0000       0.198003         5.3879 
 220   0.0000       0.205780         5.5996 
 221   0.0000       0.210707         5.7336 
 222   0.0000       0.212299         5.7770 
 223   0.0000       0.219704         5.9785 
 224   0.0000       0.221082         6.0159 
 225   0.0000       0.224800         6.1171 
 226   0.0000       0.228796         6.2259 
 227   0.0000       0.229503         6.2451 
 228   0.0000       0.231593         6.3020 
 229   0.0000       0.234371         6.3776 
 230   0.0000       0.235485         6.4079 
 231   0.0000       0.237151         6.4532 
 232   0.0000       0.241156         6.5622 
 233   0.0000       0.244458         6.6520 
 234   0.0000       0.245647         6.6844 
 235   0.0000       0.247022         6.7218 
 236   0.0000       0.250561         6.8181 
 237   0.0000       0.253765         6.9053 
 238   0.0000       0.254708         6.9310 
 239   0.0000       0.257641         7.0108 
 240   0.0000       0.260791         7.0965 
 241   0.0000       0.263175         7.1614 
 242   0.0000       0.265596         7.2272 
 243   0.0000       0.267491         7.2788 
 244   0.0000       0.269168         7.3244 
 245   0.0000       0.271409         7.3854 
 246   0.0000       0.274036         7.4569 
 247   0.0000       0.274581         7.4717 
 248   0.0000       0.278196         7.5701 
 249   0.0000       0.280902         7.6437 
 250   0.0000       0.284013         7.7284 
 251   0.0000       0.287123         7.8130 
 252   0.0000       0.289206         7.8697 
 253   0.0000       0.293000         7.9729 
 254   0.0000       0.298164         8.1135 
 255   0.0000       0.298915         8.1339 
 256   0.0000       0.306069         8.3286 
 257   0.0000       0.308131         8.3847 
 258   0.0000       0.312504         8.5037 
 259   0.0000       0.316295         8.6068 
 260   0.0000       0.316644         8.6163 
 261   0.0000       0.319706         8.6996 
 262   0.0000       0.321863         8.7583 
 263   0.0000       0.325319         8.8524 
 264   0.0000       0.328570         8.9409 
 265   0.0000       0.332148         9.0382 
 266   0.0000       0.333023         9.0620 
 267   0.0000       0.337565         9.1856 
 268   0.0000       0.339878         9.2485 
 269   0.0000       0.345570         9.4034 
 270   0.0000       0.346623         9.4321 
 271   0.0000       0.348735         9.4896 
 272   0.0000       0.352285         9.5862 
 273   0.0000       0.355489         9.6734 
 274   0.0000       0.357640         9.7319 
 275   0.0000       0.360448         9.8083 
 276   0.0000       0.364255         9.9119 
 277   0.0000       0.366764         9.9802 
 278   0.0000       0.372006        10.1228 
 279   0.0000       0.372727        10.1424 
 280   0.0000       0.375855        10.2275 
 281   0.0000       0.380288        10.3482 
 282   0.0000       0.384033        10.4501 
 283   0.0000       0.384582        10.4650 
 284   0.0000       0.390293        10.6204 
 285   0.0000       0.391297        10.6477 
 286   0.0000       0.395620        10.7654 
 287   0.0000       0.398264        10.8373 
 288   0.0000       0.399513        10.8713 
 289   0.0000       0.403943        10.9919 
 290   0.0000       0.407014        11.0754 
 291   0.0000       0.407711        11.0944 
 292   0.0000       0.411396        11.1946 
 293   0.0000       0.413219        11.2443 
 294   0.0000       0.417373        11.3573 
 295   0.0000       0.418489        11.3877 
 296   0.0000       0.422958        11.5093 
 297   0.0000       0.424623        11.5546 
 298   0.0000       0.427140        11.6231 
 299   0.0000       0.430003        11.7010 
 300   0.0000       0.434515        11.8238 
 301   0.0000       0.434556        11.8249 
 302   0.0000       0.438332        11.9276 
 303   0.0000       0.442843        12.0504 
 304   0.0000       0.445688        12.1278 
 305   0.0000       0.446697        12.1552 
 306   0.0000       0.449811        12.2400 
 307   0.0000       0.451775        12.2934 
 308   0.0000       0.455041        12.3823 
 309   0.0000       0.457124        12.4390 
 310   0.0000       0.458893        12.4871 
 311   0.0000       0.460934        12.5427 
 312   0.0000       0.461957        12.5705 
 313   0.0000       0.464318        12.6347 
 314   0.0000       0.468166        12.7394 
 315   0.0000       0.470433        12.8011 
 316   0.0000       0.471727        12.8363 
 317   0.0000       0.475193        12.9307 
 318   0.0000       0.477290        12.9877 
 319   0.0000       0.478842        13.0299 
 320   0.0000       0.482626        13.1329 
 321   0.0000       0.487759        13.2726 
 322   0.0000       0.488615        13.2959 
 323   0.0000       0.493857        13.4385 
 324   0.0000       0.495689        13.4884 
 325   0.0000       0.498688        13.5700 
 326   0.0000       0.501581        13.6487 
 327   0.0000       0.504781        13.7358 
 328   0.0000       0.506195        13.7743 
 329   0.0000       0.510722        13.8974 
 330   0.0000       0.513625        13.9764 
 331   0.0000       0.518159        14.0998 
 332   0.0000       0.519164        14.1272 
 333   0.0000       0.526153        14.3174 
 334   0.0000       0.527300        14.3486 
 335   0.0000       0.529271        14.4022 
 336   0.0000       0.533204        14.5092 
 337   0.0000       0.538308        14.6481 
 338   0.0000       0.540969        14.7205 
 339   0.0000       0.543693        14.7946 
 340   0.0000       0.544855        14.8263 
 341   0.0000       0.551616        15.0102 
 342   0.0000       0.553907        15.0726 
 343   0.0000       0.556064        15.1313 
 344   0.0000       0.558950        15.2098 
 345   0.0000       0.561881        15.2895 
 346   0.0000       0.563567        15.3355 
 347   0.0000       0.568282        15.4637 
 348   0.0000       0.571474        15.5506 
 349   0.0000       0.576140        15.6776 
 350   0.0000       0.578345        15.7376 
 351   0.0000       0.579734        15.7754 
 352   0.0000       0.581913        15.8347 
 353   0.0000       0.585091        15.9211 
 354   0.0000       0.589817        16.0497 
 355   0.0000       0.596777        16.2391 
 356   0.0000       0.599653        16.3174 
 357   0.0000       0.603077        16.4105 
 358   0.0000       0.606099        16.4928 
 359   0.0000       0.608345        16.5539 
 360   0.0000       0.615565        16.7504 
 361   0.0000       0.620328        16.8800 
 362   0.0000       0.624691        16.9987 
 363   0.0000       0.628287        17.0966 
 364   0.0000       0.630579        17.1589 
 365   0.0000       0.632901        17.2221 
 366   0.0000       0.640065        17.4171 
 367   0.0000       0.644633        17.5414 
 368   0.0000       0.649477        17.6732 
 369   0.0000       0.657460        17.8904 
 370   0.0000       0.658905        17.9297 
 371   0.0000       0.662412        18.0251 
 372   0.0000       0.668493        18.1906 
 373   0.0000       0.672765        18.3069 
 374   0.0000       0.675346        18.3771 
 375   0.0000       0.682342        18.5675 
 376   0.0000       0.685792        18.6614 
 377   0.0000       0.688236        18.7278 
 378   0.0000       0.691479        18.8161 
 379   0.0000       0.698917        19.0185 
 380   0.0000       0.704147        19.1608 
 381   0.0000       0.709032        19.2937 
 382   0.0000       0.711406        19.3584 
 383   0.0000       0.714121        19.4322 
 384   0.0000       0.716711        19.5027 
 385   0.0000       0.723630        19.6910 
 386   0.0000       0.724989        19.7280 
 387   0.0000       0.728158        19.8142 
 388   0.0000       0.732215        19.9246 
 389   0.0000       0.732812        19.9408 
 390   0.0000       0.737744        20.0750 
 391   0.0000       0.741076        20.1657 
 392   0.0000       0.743456        20.2305 
 393   0.0000       0.744558        20.2604 
 394   0.0000       0.749329        20.3903 
 395   0.0000       0.750162        20.4129 
 396   0.0000       0.759378        20.6637 
 397   0.0000       0.764807        20.8114 
 398   0.0000       0.765291        20.8246 
 399   0.0000       0.770939        20.9783 
 400   0.0000       0.772350        21.0167 
 401   0.0000       0.774164        21.0661 
 402   0.0000       0.782184        21.2843 
 403   0.0000       0.783297        21.3146 
 404   0.0000       0.785320        21.3697 
 405   0.0000       0.790320        21.5057 
 406   0.0000       0.794558        21.6210 
 407   0.0000       0.797808        21.7095 
 408   0.0000       0.801850        21.8194 
 409   0.0000       0.810071        22.0432 
 410   0.0000       0.818854        22.2822 
 411   0.0000       0.822547        22.3826 
 412   0.0000       0.827332        22.5129 
 413   0.0000       0.830626        22.6025 
 414   0.0000       0.834893        22.7186 
 415   0.0000       0.840327        22.8665 
 416   0.0000       0.846461        23.0334 
 417   0.0000       0.853991        23.2383 
 418   0.0000       0.855828        23.2883 
 419   0.0000       0.862417        23.4676 
 420   0.0000       0.863902        23.5080 
 421   0.0000       0.870216        23.6798 
 422   0.0000       0.883424        24.0392 
 423   0.0000       0.888361        24.1735 
 424   0.0000       0.897836        24.4313 
 425   0.0000       0.902775        24.5658 
 426   0.0000       0.906947        24.6793 
 427   0.0000       0.911646        24.8072 
 428   0.0000       0.915117        24.9016 
 429   0.0000       0.923809        25.1381 
 430   0.0000       0.925878        25.1944 
 431   0.0000       0.933178        25.3931 
 432   0.0000       0.941464        25.6185 
 433   0.0000       0.943075        25.6624 
 434   0.0000       0.949774        25.8447 
 435   0.0000       0.962350        26.1869 
 436   0.0000       0.964670        26.2500 
 437   0.0000       0.968903        26.3652 
 438   0.0000       0.972263        26.4566 
 439   0.0000       0.996883        27.1266 
 440   0.0000       1.002773        27.2868 
 441   0.0000       1.004123        27.3236 
 442   0.0000       1.005266        27.3547 
 443   0.0000       1.017627        27.6910 
 444   0.0000       1.026109        27.9218 
 445   0.0000       1.028636        27.9906 
 446   0.0000       1.029500        28.0141 
 447   0.0000       1.042270        28.3616 
 448   0.0000       1.045082        28.4381 
 449   0.0000       1.046923        28.4882 
 450   0.0000       1.053794        28.6752 
 451   0.0000       1.062707        28.9177 
 452   0.0000       1.071537        29.1580 
 453   0.0000       1.079462        29.3736 
 454   0.0000       1.080230        29.3946 
 455   0.0000       1.084993        29.5241 
 456   0.0000       1.094221        29.7753 
 457   0.0000       1.103593        30.0303 
 458   0.0000       1.109399        30.1883 
 459   0.0000       1.113444        30.2983 
 460   0.0000       1.120693        30.4956 
 461   0.0000       1.129736        30.7417 
 462   0.0000       1.132937        30.8288 
 463   0.0000       1.142856        31.0987 
 464   0.0000       1.149022        31.2665 
 465   0.0000       1.165213        31.7070 
 466   0.0000       1.167013        31.7560 
 467   0.0000       1.179609        32.0988 
 468   0.0000       1.185856        32.2688 
 469   0.0000       1.203043        32.7365 
 470   0.0000       1.208440        32.8833 
 471   0.0000       1.213150        33.0115 
 472   0.0000       1.217254        33.1232 
 473   0.0000       1.223893        33.3038 
 474   0.0000       1.228169        33.4202 
 475   0.0000       1.234953        33.6048 
 476   0.0000       1.240991        33.7691 
 477   0.0000       1.243705        33.8429 
 478   0.0000       1.254438        34.1350 
 479   0.0000       1.263612        34.3846 
 480   0.0000       1.268973        34.5305 
 481   0.0000       1.281063        34.8595 
 482   0.0000       1.282742        34.9052 
 483   0.0000       1.290003        35.1028 
 484   0.0000       1.291953        35.1558 
 485   0.0000       1.300157        35.3791 
 486   0.0000       1.309662        35.6377 
 487   0.0000       1.316679        35.8287 
 488   0.0000       1.322698        35.9924 
 489   0.0000       1.324812        36.0500 
 490   0.0000       1.331179        36.2232 
 491   0.0000       1.336126        36.3578 
 492   0.0000       1.346499        36.6401 
 493   0.0000       1.350045        36.7366 
[...]
freq.    1201.40  E(vib)   ...       0.01 
freq.    1208.59  E(vib)   ...       0.01 
freq.    1223.62  E(vib)   ...       0.01 
freq.    1238.93  E(vib)   ...       0.01 
freq.    1248.63  E(vib)   ...       0.01 
freq.    1256.91  E(vib)   ...       0.01 
freq.    1281.35  E(vib)   ...       0.01 
freq.    1288.87  E(vib)   ...       0.01 
freq.    1296.14  E(vib)   ...       0.01 
freq.    1299.95  E(vib)   ...       0.01 
freq.    1301.27  E(vib)   ...       0.01 
freq.    1307.47  E(vib)   ...       0.01 
freq.    1329.27  E(vib)   ...       0.01 
freq.    1330.97  E(vib)   ...       0.01 
freq.    1335.94  E(vib)   ...       0.01 
freq.    1344.30  E(vib)   ...       0.01 
freq.    1348.94  E(vib)   ...       0.01 
freq.    1360.73  E(vib)   ...       0.01 
freq.    1362.20  E(vib)   ...       0.01 
freq.    1368.84  E(vib)   ...       0.01 
freq.    1373.88  E(vib)   ...       0.01 
freq.    1392.12  E(vib)   ...       0.00 
freq.    1416.21  E(vib)   ...       0.00 
freq.    1431.67  E(vib)   ...       0.00 
freq.    1439.83  E(vib)   ...       0.00 
freq.    1449.12  E(vib)   ...       0.00 
freq.    1456.92  E(vib)   ...       0.00 
freq.    1465.79  E(vib)   ...       0.00 
freq.    1468.23  E(vib)   ...       0.00 
freq.    1469.96  E(vib)   ...       0.00 
freq.    1473.73  E(vib)   ...       0.00 
freq.    1490.20  E(vib)   ...       0.00 
freq.    1491.21  E(vib)   ...       0.00 
freq.    1499.58  E(vib)   ...       0.00 
freq.    1502.71  E(vib)   ...       0.00 
freq.    1503.49  E(vib)   ...       0.00 
freq.    1516.59  E(vib)   ...       0.00 
freq.    1526.56  E(vib)   ...       0.00 
freq.    1538.84  E(vib)   ...       0.00 
freq.    1568.80  E(vib)   ...       0.00 
freq.    1575.85  E(vib)   ...       0.00 
freq.    1580.89  E(vib)   ...       0.00 
freq.    1588.29  E(vib)   ...       0.00 
freq.    1592.19  E(vib)   ...       0.00 
freq.    1608.80  E(vib)   ...       0.00 
freq.    1609.65  E(vib)   ...       0.00 
freq.    1613.05  E(vib)   ...       0.00 
freq.    1618.58  E(vib)   ...       0.00 
freq.    1621.90  E(vib)   ...       0.00 
freq.    1634.15  E(vib)   ...       0.00 
freq.    1635.23  E(vib)   ...       0.00 
freq.    1642.06  E(vib)   ...       0.00 
freq.    2991.97  E(vib)   ...       0.00 
freq.    3074.85  E(vib)   ...       0.00 
freq.    3101.84  E(vib)   ...       0.00 
freq.    3114.95  E(vib)   ...       0.00 
freq.    3116.13  E(vib)   ...       0.00 
freq.    3118.65  E(vib)   ...       0.00 
freq.    3119.76  E(vib)   ...       0.00 
freq.    3120.34  E(vib)   ...       0.00 
freq.    3121.39  E(vib)   ...       0.00 
freq.    3121.90  E(vib)   ...       0.00 
freq.    3122.96  E(vib)   ...       0.00 
freq.    3126.67  E(vib)   ...       0.00 
freq.    3126.76  E(vib)   ...       0.00 
freq.    3127.96  E(vib)   ...       0.00 
freq.    3128.09  E(vib)   ...       0.00 
freq.    3130.18  E(vib)   ...       0.00 
freq.    3131.79  E(vib)   ...       0.00 
freq.    3132.49  E(vib)   ...       0.00 
freq.    3133.60  E(vib)   ...       0.00 
freq.    3136.16  E(vib)   ...       0.00 
freq.    3137.31  E(vib)   ...       0.00 
freq.    3137.70  E(vib)   ...       0.00 
freq.    3138.01  E(vib)   ...       0.00 
freq.    3142.18  E(vib)   ...       0.00 
freq.    3143.94  E(vib)   ...       0.00 
freq.    3144.34  E(vib)   ...       0.00 
freq.    3146.32  E(vib)   ...       0.00 
freq.    3152.78  E(vib)   ...       0.00 
freq.    3165.11  E(vib)   ...       0.00 
freq.    3177.47  E(vib)   ...       0.00 
freq.    3179.33  E(vib)   ...       0.00 

------------
INNER ENERGY
------------

The inner energy is: U= E(el) + E(ZPE) + E(vib) + E(rot) + E(trans)
    E(el)   - is the total energy from the electronic structure calculation
              = E(kin-el) + E(nuc-el) + E(el-el) + E(nuc-nuc)
    E(ZPE)  - the the zero temperature vibrational energy from the frequency calculation
    E(vib)  - the the finite temperature correction to E(ZPE) due to population
              of excited vibrational states
    E(rot)  - is the rotational thermal energy
    E(trans)- is the translational thermal energy

Summary of contributions to the inner energy U:
Electronic energy                ...  -5979.57804570 Eh
Zero point energy                ...      0.59419076 Eh     372.86 kcal/mol
Thermal vibrational correction   ...      0.03651989 Eh      22.92 kcal/mol
Thermal rotational correction    ...      0.00141627 Eh       0.89 kcal/mol
Thermal translational correction ...      0.00141627 Eh       0.89 kcal/mol
-----------------------------------------------------------------------
Total thermal energy                  -5978.94450252 Eh


Summary of corrections to the electronic energy:
(perhaps to be used in another calculation)
Total thermal correction                  0.03935243 Eh      24.69 kcal/mol
Non-thermal (ZPE) correction              0.59419076 Eh     372.86 kcal/mol
-----------------------------------------------------------------------
Total correction                          0.63354318 Eh     397.55 kcal/mol


--------
ENTHALPY
--------

The enthalpy is H = U + kB*T
                kB is Boltzmann's constant
Total free energy                 ...  -5978.94450252 Eh 
Thermal Enthalpy correction       ...      0.00094421 Eh       0.59 kcal/mol
-----------------------------------------------------------------------
Total Enthalpy                    ...  -5978.94355831 Eh


Note: Only C1 symmetry has been detected, increase convergence thresholds 
      if your molecule has a higher symmetry. Symmetry factor of 1.0 is   
      used for the rotational entropy correction. 
 

Note: Rotational entropy computed according to Herzberg 
Infrared and Raman Spectra, Chapter V,1, Van Nostrand Reinhold, 1945 
Point Group:  C1, Symmetry Number:   1  
Rotational constants in cm-1:     0.003080     0.001980     0.001758 

Vibrational entropy computed according to the QRRHO of S. Grimme
Chem.Eur.J. 2012 18 9955


-------
ENTROPY
-------

The entropy contributions are T*S = T*(S(el)+S(vib)+S(rot)+S(trans))
     S(el)   - electronic entropy
     S(vib)  - vibrational entropy
     S(rot)  - rotational entropy
     S(trans)- translational entropy
The entropies will be listed as multiplied by the temperature to get
units of energy

Electronic entropy                ...      0.00000000 Eh      0.00 kcal/mol
Vibrational entropy               ...      0.06550717 Eh     41.11 kcal/mol
Rotational entropy                ...      0.01817426 Eh     11.40 kcal/mol
Translational entropy             ...      0.02164958 Eh     13.59 kcal/mol
-----------------------------------------------------------------------
Final entropy term                ...      0.10533101 Eh     66.10 kcal/mol

In case the symmetry of your molecule has not been determined correctly
or in case you have a reason to use a different symmetry number we print 
out the resulting rotational entropy values for sn=1,12 :
 --------------------------------------------------------
|  sn= 1 | S(rot)=       0.01817426 Eh     11.40 kcal/mol|
|  sn= 2 | S(rot)=       0.01751980 Eh     10.99 kcal/mol|
|  sn= 3 | S(rot)=       0.01713697 Eh     10.75 kcal/mol|
|  sn= 4 | S(rot)=       0.01686535 Eh     10.58 kcal/mol|
|  sn= 5 | S(rot)=       0.01665466 Eh     10.45 kcal/mol|
|  sn= 6 | S(rot)=       0.01648251 Eh     10.34 kcal/mol|
|  sn= 7 | S(rot)=       0.01633697 Eh     10.25 kcal/mol|
|  sn= 8 | S(rot)=       0.01621089 Eh     10.17 kcal/mol|
|  sn= 9 | S(rot)=       0.01609968 Eh     10.10 kcal/mol|
|  sn=10 | S(rot)=       0.01600020 Eh     10.04 kcal/mol|
|  sn=11 | S(rot)=       0.01591021 Eh      9.98 kcal/mol|
|  sn=12 | S(rot)=       0.01582806 Eh      9.93 kcal/mol|
 --------------------------------------------------------


-------------------
GIBBS FREE ENERGY
-------------------

The Gibbs free energy is G = H - T*S

Total enthalpy                    ...  -5978.94355831 Eh 
Total entropy correction          ...     -0.10533101 Eh    -66.10 kcal/mol
-----------------------------------------------------------------------
Final Gibbs free energy         ...  -5979.04888932 Eh

For completeness - the Gibbs free energy minus the electronic energy
G-E(el)                           ...      0.52915638 Eh    332.05 kcal/mol

Reading the hessian file           ...... done
Determining length of initial displacement:
  Requested energy change (quadratic behavior): 2.000 mEh
  Resulting scaling factor for initial displacement along normalized TS mode: 1.9968

         *************************************************************
         *                          FORWARD IRC                      *
         *************************************************************

Iteration    E(Eh)      dE(kcal/mol)  max(|G|)   RMS(G) 
Convergence thresholds                0.002000  0.000500            
    0     -5979.579202   -0.725451    0.015432  0.001910
    1     -5979.581104   -1.918987    0.005299  0.000944
    2     -5979.581544   -2.194984    0.005616  0.000856
    3     -5979.581824   -2.370628    0.005765  0.000710
    4     -5979.582187   -2.598465    0.006025  0.000664
    5     -5979.582578   -2.844307    0.006214  0.000734
    6     -5979.582965   -3.086737    0.006642  0.000713
    7     -5979.583383   -3.349388    0.007018  0.000759
    8     -5979.583813   -3.618726    0.007388  0.000778
    9     -5979.584272   -3.906875    0.007764  0.000831
   10     -5979.584744   -4.203531    0.008139  0.000854
   11     -5979.585247   -4.518928    0.008502  0.000906
   12     -5979.585763   -4.842688    0.008851  0.000928
   13     -5979.586307   -5.183992    0.009189  0.000977
   14     -5979.586863   -5.533010    0.009510  0.000996
   15     -5979.587444   -5.897742    0.009814  0.001039
   16     -5979.588036   -6.269177    0.010099  0.001056
   17     -5979.588650   -6.654029    0.010363  0.001092
   18     -5979.589272   -7.044361    0.010605  0.001106
   19     -5979.589911   -7.445666    0.010823  0.001134
   20     -5979.590558   -7.851574    0.011017  0.001145
   21     -5979.591217   -8.265408    0.011179  0.001166
   22     -5979.591882   -8.682179    0.011305  0.001172
   23     -5979.592553   -9.103259    0.011382  0.001181
   24     -5979.593225   -9.525076    0.011402  0.001181
   25     -5979.593897   -9.947112    0.011354  0.001178
   26     -5979.594566   -10.366570    0.011231  0.001168
   27     -5979.595227   -10.781100    0.011037  0.001153
   28     -5979.595876   -11.188607    0.010777  0.001134
   29     -5979.596510   -11.586412    0.010468  0.001111
   30     -5979.597128   -11.974128    0.010121  0.001082
   31     -5979.597730   -12.352191    0.009747  0.001056
   32     -5979.598314   -12.718527    0.009359  0.001023
   33     -5979.598883   -13.075270    0.008964  0.000995
   34     -5979.599432   -13.420376    0.008570  0.000963
   35     -5979.599968   -13.756225    0.008180  0.000937
   36     -5979.600485   -14.080589    0.007801  0.000905
   37     -5979.600988   -14.396641    0.007432  0.000882
   38     -5979.601475   -14.701995    0.007080  0.000852
   39     -5979.601949   -14.999792    0.006740  0.000831
   40     -5979.602408   -15.287612    0.006417  0.000803
   41     -5979.602856   -15.568932    0.006105  0.000785
   42     -5979.603289   -15.840581    0.005809  0.000758
   43     -5979.603713   -16.106580    0.005523  0.000743
   44     -5979.604123   -16.363696    0.005249  0.000718
   45     -5979.604524   -16.615542    0.004981  0.000704
   46     -5979.604912   -16.858805    0.004725  0.000680
   47     -5979.605292   -17.097479    0.004473  0.000668
   48     -5979.605660   -17.328061    0.004231  0.000644
   49     -5979.606021   -17.554442    0.003993  0.000633
   50     -5979.606369   -17.773106    0.003765  0.000611
   51     -5979.606712   -17.988143    0.003655  0.000600
   52     -5979.607043   -18.195823    0.003578  0.000580
   53     -5979.607368   -18.400003    0.003502  0.000570
   54     -5979.607682   -18.597217    0.003429  0.000552
   55     -5979.607991   -18.791142    0.003356  0.000541
   56     -5979.608291   -18.979173    0.003284  0.000525
   57     -5979.608585   -19.163676    0.003213  0.000514
   58     -5979.608871   -19.343076    0.003142  0.000500
   59     -5979.609151   -19.518889    0.003072  0.000490
   60     -5979.609423   -19.689784    0.003002  0.000477
   61     -5979.609691   -19.857487    0.002932  0.000466
   62     -5979.609951   -20.020695    0.002862  0.000455
   63     -5979.610206   -20.180646    0.002794  0.000445
   64     -5979.610454   -20.336767    0.002725  0.000435
   65     -5979.610698   -20.489278    0.002659  0.000424
   66     -5979.610935   -20.638349    0.002593  0.000416
   67     -5979.611167   -20.783952    0.002529  0.000405
   68     -5979.611394   -20.926409    0.002467  0.000397
   69     -5979.611616   -21.065354    0.002407  0.000387
   70     -5979.611833   -21.201532    0.002348  0.000379
   71     -5979.612044   -21.334183    0.002290  0.000370
   72     -5979.612251   -21.464278    0.002234  0.000363
   73     -5979.612453   -21.590934    0.002178  0.000353
   74     -5979.612651   -21.715054    0.002124  0.000346
   75     -5979.612844   -21.836158    0.002070  0.000337
   76     -5979.613033   -21.954844    0.002018  0.000330
   77     -5979.613218   -22.070680    0.001966  0.000323

                      ***********************HURRAY********************
                      ***            THE IRC HAS CONVERGED          ***
                      *************************************************


         *************************************************************
         *                          BACKWARD IRC                     *
         *************************************************************

Iteration    E(Eh)      dE(kcal/mol)  max(|G|)   RMS(G) 
Convergence thresholds                0.002000  0.000500            
    0     -5979.577703    0.214942    0.010084  0.001479
    1     -5979.578165   -0.074683    0.007016  0.000954
    2     -5979.578430   -0.241195    0.004865  0.000649
    3     -5979.578667   -0.390124    0.002830  0.000407
    4     -5979.578852   -0.506162    0.001888  0.000300

                      ***********************HURRAY********************
                      ***            THE IRC HAS CONVERGED          ***
                      *************************************************


---------------------------------------------------------------
                       IRC PATH SUMMARY              
---------------------------------------------------------------
All gradients are in Eh/Bohr.

Step        E(Eh)      dE(kcal/mol)  max(|G|)   RMS(G) 
   1     -5979.578852   -0.506162    0.001888  0.000300
   2     -5979.578667   -0.390124    0.002830  0.000407
   3     -5979.578430   -0.241195    0.004865  0.000649
   4     -5979.578165   -0.074683    0.007016  0.000954
   5     -5979.577703    0.214942    0.010084  0.001479
   6     -5979.578046    0.000000    0.001027  0.000096 <= TS
   7     -5979.579202   -0.725451    0.015432  0.001910
   8     -5979.581104   -1.918987    0.005299  0.000944
   9     -5979.581544   -2.194984    0.005616  0.000856
  10     -5979.581824   -2.370628    0.005765  0.000710
  11     -5979.582187   -2.598465    0.006025  0.000664
  12     -5979.582578   -2.844307    0.006214  0.000734
  13     -5979.582965   -3.086737    0.006642  0.000713
  14     -5979.583383   -3.349388    0.007018  0.000759
  15     -5979.583813   -3.618726    0.007388  0.000778
  16     -5979.584272   -3.906875    0.007764  0.000831
  17     -5979.584744   -4.203531    0.008139  0.000854
  18     -5979.585247   -4.518928    0.008502  0.000906
  19     -5979.585763   -4.842688    0.008851  0.000928
  20     -5979.586307   -5.183992    0.009189  0.000977
  21     -5979.586863   -5.533010    0.009510  0.000996
  22     -5979.587444   -5.897742    0.009814  0.001039
  23     -5979.588036   -6.269177    0.010099  0.001056
  24     -5979.588650   -6.654029    0.010363  0.001092
  25     -5979.589272   -7.044361    0.010605  0.001106
  26     -5979.589911   -7.445666    0.010823  0.001134
  27     -5979.590558   -7.851574    0.011017  0.001145
  28     -5979.591217   -8.265408    0.011179  0.001166
  29     -5979.591882   -8.682179    0.011305  0.001172
  30     -5979.592553   -9.103259    0.011382  0.001181
  31     -5979.593225   -9.525076    0.011402  0.001181
  32     -5979.593897   -9.947112    0.011354  0.001178
  33     -5979.594566   -10.366570    0.011231  0.001168
  34     -5979.595227   -10.781100    0.011037  0.001153
  35     -5979.595876   -11.188607    0.010777  0.001134
  36     -5979.596510   -11.586412    0.010468  0.001111
  37     -5979.597128   -11.974128    0.010121  0.001082
  38     -5979.597730   -12.352191    0.009747  0.001056
  39     -5979.598314   -12.718527    0.009359  0.001023
  40     -5979.598883   -13.075270    0.008964  0.000995
  41     -5979.599432   -13.420376    0.008570  0.000963
  42     -5979.599968   -13.756225    0.008180  0.000937
  43     -5979.600485   -14.080589    0.007801  0.000905
  44     -5979.600988   -14.396641    0.007432  0.000882
  45     -5979.601475   -14.701995    0.007080  0.000852
  46     -5979.601949   -14.999792    0.006740  0.000831
  47     -5979.602408   -15.287612    0.006417  0.000803
  48     -5979.602856   -15.568932    0.006105  0.000785
  49     -5979.603289   -15.840581    0.005809  0.000758
  50     -5979.603713   -16.106580    0.005523  0.000743
  51     -5979.604123   -16.363696    0.005249  0.000718
  52     -5979.604524   -16.615542    0.004981  0.000704
  53     -5979.604912   -16.858805    0.004725  0.000680
  54     -5979.605292   -17.097479    0.004473  0.000668
  55     -5979.605660   -17.328061    0.004231  0.000644
  56     -5979.606021   -17.554442    0.003993  0.000633
  57     -5979.606369   -17.773106    0.003765  0.000611
  58     -5979.606712   -17.988143    0.003655  0.000600
  59     -5979.607043   -18.195823    0.003578  0.000580
  60     -5979.607368   -18.400003    0.003502  0.000570
  61     -5979.607682   -18.597217    0.003429  0.000552
  62     -5979.607991   -18.791142    0.003356  0.000541
  63     -5979.608291   -18.979173    0.003284  0.000525
  64     -5979.608585   -19.163676    0.003213  0.000514
  65     -5979.608871   -19.343076    0.003142  0.000500
  66     -5979.609151   -19.518889    0.003072  0.000490
  67     -5979.609423   -19.689784    0.003002  0.000477
  68     -5979.609691   -19.857487    0.002932  0.000466
  69     -5979.609951   -20.020695    0.002862  0.000455
  70     -5979.610206   -20.180646    0.002794  0.000445
  71     -5979.610454   -20.336767    0.002725  0.000435
  72     -5979.610698   -20.489278    0.002659  0.000424
  73     -5979.610935   -20.638349    0.002593  0.000416
  74     -5979.611167   -20.783952    0.002529  0.000405
  75     -5979.611394   -20.926409    0.002467  0.000397
  76     -5979.611616   -21.065354    0.002407  0.000387
  77     -5979.611833   -21.201532    0.002348  0.000379
  78     -5979.612044   -21.334183    0.002290  0.000370
  79     -5979.612251   -21.464278    0.002234  0.000363
  80     -5979.612453   -21.590934    0.002178  0.000353
  81     -5979.612651   -21.715054    0.002124  0.000346
  82     -5979.612844   -21.836158    0.002070  0.000337
  83     -5979.613033   -21.954844    0.002018  0.000330
  84     -5979.613218   -22.070680    0.001966  0.000323

Timings for individual modules:

Sum of individual times         ...    17759.500 sec (= 295.992 min)
GTO integral calculation        ...      525.834 sec (=   8.764 min)   3.0 %
SCF iterations                  ...    13901.278 sec (= 231.688 min)  78.3 %
SCF Gradient evaluation         ...     1149.345 sec (=  19.156 min)   6.5 %
Analytical frequency calculation...     2183.043 sec (=  36.384 min)  12.3 %
                             ****ORCA TERMINATED NORMALLY****
TOTAL RUN TIME: 0 days 4 hours 59 minutes 48 seconds 151 msec
