
                                 *****************
                                 * O   R   C   A *
                                 *****************

                                            #,                                       
                                            ###                                      
                                            ####                                     
                                            #####                                    
                                            ######                                   
                                           ########,                                 
                                     ,,################,,,,,                         
                               ,,#################################,,                 
                          ,,##########################################,,             
                       ,#########################################, ''#####,          
                    ,#############################################,,   '####,        
                  ,##################################################,,,,####,       
                ,###########''''           ''''###############################       
              ,#####''   ,,,,##########,,,,          '''####'''          '####       
            ,##' ,,,,###########################,,,                        '##       
           ' ,,###''''                  '''############,,,                           
         ,,##''                                '''############,,,,        ,,,,,,###''
      ,#''                                            '''#######################'''  
     '                                                          ''''####''''         
             ,#######,   #######,   ,#######,      ##                                
            ,#'     '#,  ##    ##  ,#'     '#,    #''#        ######   ,####,        
            ##       ##  ##   ,#'  ##            #'  '#       #        #'  '#        
            ##       ##  #######   ##           ,######,      #####,   #    #        
            '#,     ,#'  ##    ##  '#,     ,#' ,#      #,         ##   #,  ,#        
             '#######'   ##     ##  '#######'  #'      '#     #####' # '####'        



                  #######################################################
                  #                        -***-                        #
                  #          Department of theory and spectroscopy      #
                  #    Directorship and core code : Frank Neese         #
                  #        Max Planck Institute fuer Kohlenforschung    #
                  #                Kaiser Wilhelm Platz 1               #
                  #                 D-45470 Muelheim/Ruhr               #
                  #                      Germany                        #
                  #                                                     #
                  #                  All rights reserved                #
                  #                        -***-                        #
                  #######################################################


                         Program Version 5.0.1 -  RELEASE  -


 With contributions from (in alphabetic order):
   Daniel Aravena         : Magnetic Suceptibility
   Michael Atanasov       : Ab Initio Ligand Field Theory (pilot matlab implementation)
   Alexander A. Auer      : GIAO ZORA, VPT2 properties, NMR spectrum
   Ute Becker             : Parallelization
   Giovanni Bistoni       : ED, misc. LED, open-shell LED, HFLD
   Martin Brehm           : Molecular dynamics
   Dmytro Bykov           : SCF Hessian
   Vijay G. Chilkuri      : MRCI spin determinant printing, contributions to CSF-ICE
   Dipayan Datta          : RHF DLPNO-CCSD density
   Achintya Kumar Dutta   : EOM-CC, STEOM-CC
   Dmitry Ganyushin       : Spin-Orbit,Spin-Spin,Magnetic field MRCI
   Miquel Garcia          : C-PCM and meta-GGA Hessian, CC/C-PCM, Gaussian charge scheme
   Yang Guo               : DLPNO-NEVPT2, F12-NEVPT2, CIM, IAO-localization
   Andreas Hansen         : Spin unrestricted coupled pair/coupled cluster methods
   Benjamin Helmich-Paris : MC-RPA, TRAH-SCF, COSX integrals
   Lee Huntington         : MR-EOM, pCC
   Robert Izsak           : Overlap fitted RIJCOSX, COSX-SCS-MP3, EOM
   Marcus Kettner         : VPT2
   Christian Kollmar      : KDIIS, OOCD, Brueckner-CCSD(T), CCSD density, CASPT2, CASPT2-K
   Simone Kossmann        : Meta GGA functionals, TD-DFT gradient, OOMP2, MP2 Hessian
   Martin Krupicka        : Initial AUTO-CI
   Lucas Lang             : DCDCAS
   Marvin Lechner         : AUTO-CI (C++ implementation), FIC-MRCC
   Dagmar Lenk            : GEPOL surface, SMD
   Dimitrios Liakos       : Extrapolation schemes; Compound Job, initial MDCI parallelization
   Dimitrios Manganas     : Further ROCIS development; embedding schemes
   Dimitrios Pantazis     : SARC Basis sets
   Anastasios Papadopoulos: AUTO-CI, single reference methods and gradients
   Taras Petrenko         : DFT Hessian,TD-DFT gradient, ASA, ECA, R-Raman, ABS, FL, XAS/XES, NRVS
   Peter Pinski           : DLPNO-MP2, DLPNO-MP2 Gradient
   Christoph Reimann      : Effective Core Potentials
   Marius Retegan         : Local ZFS, SOC
   Christoph Riplinger    : Optimizer, TS searches, QM/MM, DLPNO-CCSD(T), (RO)-DLPNO pert. Triples
   Tobias Risthaus        : Range-separated hybrids, TD-DFT gradient, RPA, STAB
   Michael Roemelt        : Original ROCIS implementation
   Masaaki Saitow         : Open-shell DLPNO-CCSD energy and density
   Barbara Sandhoefer     : DKH picture change effects
   Avijit Sen             : IP-ROCIS
   Kantharuban Sivalingam : CASSCF convergence, NEVPT2, FIC-MRCI
   Bernardo de Souza      : ESD, SOC TD-DFT
   Georgi Stoychev        : AutoAux, RI-MP2 NMR, DLPNO-MP2 response
   Willem Van den Heuvel  : Paramagnetic NMR
   Boris Wezisla          : Elementary symmetry handling
   Frank Wennmohs         : Technical directorship


 We gratefully acknowledge several colleagues who have allowed us to
 interface, adapt or use parts of their codes:
   Stefan Grimme, W. Hujo, H. Kruse, P. Pracht,  : VdW corrections, initial TS optimization,
                  C. Bannwarth, S. Ehlert          DFT functionals, gCP, sTDA/sTD-DF
   Ed Valeev, F. Pavosevic, A. Kumar             : LibInt (2-el integral package), F12 methods
   Garnet Chan, S. Sharma, J. Yang, R. Olivares  : DMRG
   Ulf Ekstrom                                   : XCFun DFT Library
   Mihaly Kallay                                 : mrcc  (arbitrary order and MRCC methods)
   Jiri Pittner, Ondrej Demel                    : Mk-CCSD
   Frank Weinhold                                : gennbo (NPA and NBO analysis)
   Christopher J. Cramer and Donald G. Truhlar   : smd solvation model
   Lars Goerigk                                  : TD-DFT with DH, B97 family of functionals
   V. Asgeirsson, H. Jonsson                     : NEB implementation
   FAccTs GmbH                                   : IRC, NEB, NEB-TS, DLPNO-Multilevel, CI-OPT
                                                   MM, QMMM, 2- and 3-layer-ONIOM, Crystal-QMMM,
                                                   LR-CPCM, SF, NACMEs, symmetry and pop. for TD-DFT,
                                                   nearIR, NL-DFT gradient (VV10), updates on ESD,
                                                   ML-optimized integration grids
   S Lehtola, MJT Oliveira, MAL Marques          : LibXC Library
   Liviu Ungur et al                             : ANISO software


 Your calculation uses the libint2 library for the computation of 2-el integrals
 For citations please refer to: http://libint.valeyev.net

 Your ORCA version has been built with support for libXC version: 5.1.0
 For citations please refer to: https://tddft.org/programs/libxc/

 This ORCA versions uses:
   CBLAS   interface :  Fast vector & matrix operations
   LAPACKE interface :  Fast linear algebra routines
   SCALAPACK package :  Parallel linear algebra routines
   Shared memory     :  Shared parallel matrices
   BLAS/LAPACK       :  OpenBLAS 0.3.15  USE64BITINT DYNAMIC_ARCH NO_AFFINITY Zen SINGLE_THREADED
        Core in use  :  Zen
   Copyright (c) 2011-2014, The OpenBLAS Project




***************************************
The coordinates will be read from file: /scratch/negishi/li1724/Test-CentralizedCode-4-5/DFT/CWMHSQPVYVHHDK-QJPJQTDYNZXKQF_0_1/CWMHSQPVYVHHDK-QJPJQTDYNZXKQF_0_1-FullTZ.xyz
***************************************


Your calculation utilizes the atom-pairwise dispersion correction
with the Becke-Johnson damping scheme (D3BJ)
Cite in your paper:
S.Grimme, S.Ehrlich, L.Goerigk, J Comput Chem, (2011), 32, 1456–1465 
S.Grimme, J.Antony, S.Ehrlich and H.Krieg, J.Chem.Phys., 132, (2010), 154104 
   

Your calculation employs the composite approach B97-3c by Grimme and coworkers.
For the correct reference, please check the publication list of the Grimme group:
http://www.thch.uni-bonn.de/tc/index.php?section=publikationen&subsection=grimme#2017
   

XCFun DFT library Copyright 2009-2010 Ulf Ekstrom and contributors.
See http://admol.org/xcfun for more information.
This is free software; see the source code for copying conditions.
There is ABSOLUTELY NO WARRANTY; not even for MERCHANTABILITY or FITNESS FOR A PARTICULAR PURPOSE.
For details see the documentation.
Scientific users of this library should cite U. Ekstrom, L. Visscher, R. Bast, A. J. Thorvaldsen and K. Ruud;
J.Chem.Theor.Comp. 2010, DOI: 10.1021/ct100117s
XCFun Version 0.99 

================================================================================

----- Orbital basis set information -----
Your calculation utilizes the basis: def2-mTZVP
----- AuxJ basis set information -----
Your calculation utilizes the basis: def2-mTZVP/J
================================================================================
                                        WARNINGS
                       Please study these warnings very carefully!
================================================================================

WARNING: Old DensityContainer found on disk!
         Will remove this file - 
         If you want to keep old densities, please start your calculation with a different basename. 

WARNING: Gradients needed for Numerical Frequencies
  ===> : Setting RunTyp to EnGrad

WARNING: The environment variable RSH_COMMAND is not set!
  ===> : All Displacements for the Numerical Hessian calculation
         will be started on localhost

INFO   : the flag for use of the SHARK integral package has been found!

================================================================================
                                       INPUT FILE
================================================================================
NAME = /scratch/negishi/li1724/Test-CentralizedCode-4-5/DFT/CWMHSQPVYVHHDK-QJPJQTDYNZXKQF_0_1/CWMHSQPVYVHHDK-QJPJQTDYNZXKQF_0_1-FullTZ.in
|  1> ! B97-3c def2-mTZVP CPCM(DMSO) defgrid2 NumFreq
|  2> 
|  3> %scf
|  4>   MaxIter 500
|  5> end
|  6> 
|  7> %pal
|  8>   nproc 32
|  9> end
| 10> 
| 11> %maxcore 7200
| 12> 
| 13> %base "CWMHSQPVYVHHDK-QJPJQTDYNZXKQF_0_1-FullTZ"
| 14> 
| 15> *xyzfile -1 1 /scratch/negishi/li1724/Test-CentralizedCode-4-5/DFT/CWMHSQPVYVHHDK-QJPJQTDYNZXKQF_0_1/CWMHSQPVYVHHDK-QJPJQTDYNZXKQF_0_1-FullTZ.xyz
| 16> 
| 17>                          ****END OF INPUT****
================================================================================

                     *******************************
                     * Energy+Gradient Calculation *
                     *******************************

---------------------------------
CARTESIAN COORDINATES (ANGSTROEM)
---------------------------------
  Br     0.172472    3.149595   -0.908341
  C     -2.470093   -1.099463   -1.563057
  C     -4.148179   -2.162077   -0.112240
  C      3.381514   -2.184291   -0.777529
  C      0.940352   -1.955434   -0.864124
  C     -3.135878   -2.529603    0.752908
  C      0.853768   -3.353801   -0.965939
  C     -1.417197   -1.480726   -0.642179
  C      3.264227   -3.578471   -0.875822
  C     -2.176204   -0.412873   -2.764925
  C     -3.837071   -1.430496   -1.286487
  C      2.246345   -1.345040   -0.763832
  C     -1.777875   -2.196431    0.529558
  C      1.997948   -4.166318   -0.970520
  C     -5.981572    0.769621    1.218980
  C     -3.693985    1.688868   -0.171035
  C     -3.672887    1.364576    1.194567
  C     -3.173944   -0.026140   -3.643287
  C     -4.843748   -1.016211   -2.199292
  C     -2.535624    2.140223   -0.802631
  C     -2.477395    1.519926    1.922381
  C     -1.364646    2.261167   -0.068814
  C     -1.327109    1.987868    1.297003
  C     -0.823937   -3.839314    2.162873
  C     -0.796182   -2.562005    1.573271
  C     -4.524913   -0.320841   -3.351152
  C      3.483876    0.693276   -0.807083
  C      4.024474    0.806068   -2.107831
  C      4.258139    0.595671    3.991165
  C      4.642023    0.670551    2.648896
  C      2.987956    1.028708    4.381030
  C      3.763742    1.171880    1.673987
  C      4.202514    1.293082    0.264920
  C      0.086110   -4.196825    3.161285
  C      5.205060    1.499096   -2.362679
  C      0.171085   -1.648618    2.031633
  C      2.110179    1.531828    3.414734
  C      2.496437    1.594224    2.083817
  C      5.397261    1.982645   -0.009704
  C      5.902834    2.097845   -1.304999
  C      1.050328   -3.281554    3.594501
  C      1.082862   -2.002630    3.024910
  Cu     0.470256    0.750062   -0.747883
  H     -1.133666   -0.178519   -2.978106
  H     -6.685902    0.387554    1.964666
  H     -5.185876   -2.416157    0.104560
  H      4.368193   -1.727468   -0.691622
  H     -0.133983   -3.808389   -1.050860
  H     -3.389564   -3.059005    1.672749
  H      4.163537   -4.197434   -0.872931
  H     -6.341966    1.736618    0.840025
  H     -1.553903   -4.571026    1.814649
  H     -4.595361    1.570816   -0.765405
  H     -2.550858    2.377291   -1.862884
  H     -2.461571    1.279424    2.984179
  H      1.892163   -5.249389   -1.053242
  H     -2.918278    0.507359   -4.559718
  H      3.477669    0.331734   -2.924299
  H     -5.903541    0.051595    0.391922
  H     -5.883631   -1.256182   -1.971071
  H     -0.416211    2.136878    1.869404
  H      4.952650    0.196216    4.731296
  H      5.632652    0.328292    2.346917
  H     -5.312824   -0.008838   -4.038383
  H      2.682683    0.972858    5.426523
  H      0.048869   -5.198506    3.592253
  H      0.215725   -0.654102    1.589490
  H      5.579754    1.578287   -3.384788
  H      1.117584    1.877502    3.704372
  H      1.817973    1.994720    1.336950
  H      5.933865    2.443337    0.821418
  H      6.824931    2.650300   -1.487664
  H      1.769496   -3.560308    4.365948
  H      1.822683   -1.272350    3.354800
  N     -0.136617   -1.099998   -0.941571
  N      2.288161    0.015473   -0.614238
  O     -4.738295    0.914496    1.889290

----------------------------
CARTESIAN COORDINATES (A.U.)
----------------------------
  NO LB      ZA    FRAG     MASS         X           Y           Z
   0 Br   35.0000    0    79.900    0.325926    5.951872   -1.716517
   1 C     6.0000    0    12.011   -4.667800   -2.077683   -2.953750
   2 C     6.0000    0    12.011   -7.838923   -4.085733   -0.212103
   3 C     6.0000    0    12.011    6.390135   -4.127712   -1.469317
   4 C     6.0000    0    12.011    1.777007   -3.695235   -1.632959
   5 C     6.0000    0    12.011   -5.925950   -4.780257    1.422790
   6 C     6.0000    0    12.011    1.613388   -6.337766   -1.825361
   7 C     6.0000    0    12.011   -2.678115   -2.798166   -1.213542
   8 C     6.0000    0    12.011    6.168496   -6.762330   -1.655063
   9 C     6.0000    0    12.011   -4.112429   -0.780216   -5.224952
  10 C     6.0000    0    12.011   -7.251014   -2.703245   -2.431108
  11 C     6.0000    0    12.011    4.244976   -2.541757   -1.443433
  12 C     6.0000    0    12.011   -3.359698   -4.150654    1.000719
  13 C     6.0000    0    12.011    3.775574   -7.873200   -1.834016
  14 C     6.0000    0    12.011  -11.303533    1.454373    2.303538
  15 C     6.0000    0    12.011   -6.980621    3.191498   -0.323209
  16 C     6.0000    0    12.011   -6.940751    2.578674    2.257404
  17 C     6.0000    0    12.011   -5.997886   -0.049398   -6.884815
  18 C     6.0000    0    12.011   -9.153358   -1.920361   -4.156059
  19 C     6.0000    0    12.011   -4.791635    4.044436   -1.516753
  20 C     6.0000    0    12.011   -4.681597    2.872243    3.632774
  21 C     6.0000    0    12.011   -2.578807    4.272986   -0.130040
  22 C     6.0000    0    12.011   -2.507872    3.756526    2.450980
  23 C     6.0000    0    12.011   -1.557014   -7.255252    4.087238
  24 C     6.0000    0    12.011   -1.504565   -4.841488    2.973052
  25 C     6.0000    0    12.011   -8.550845   -0.606302   -6.332760
  26 C     6.0000    0    12.011    6.583571    1.310102   -1.525166
  27 C     6.0000    0    12.011    7.605154    1.523247   -3.983223
  28 C     6.0000    0    12.011    8.046717    1.125655    7.542210
  29 C     6.0000    0    12.011    8.772153    1.267157    5.005689
  30 C     6.0000    0    12.011    5.646419    1.943976    8.278947
  31 C     6.0000    0    12.011    7.112442    2.214532    3.163378
  32 C     6.0000    0    12.011    7.941601    2.443571    0.500626
  33 C     6.0000    0    12.011    0.162724   -7.930850    5.973963
  34 C     6.0000    0    12.011    9.836137    2.832881   -4.464817
  35 C     6.0000    0    12.011    0.323303   -3.115437    3.839230
  36 C     6.0000    0    12.011    3.987660    2.894735    6.452913
  37 C     6.0000    0    12.011    4.717582    3.012646    3.937843
  38 C     6.0000    0    12.011   10.199346    3.746657   -0.018337
  39 C     6.0000    0    12.011   11.154740    3.964352   -2.466091
  40 C     6.0000    0    12.011    1.984833   -6.201238    6.792622
  41 C     6.0000    0    12.011    2.046313   -3.784422    5.716251
  42 Cu   29.0000    0    63.550    0.888655    1.417413   -1.413294
  43 H     1.0000    0     1.008   -2.142319   -0.337352   -5.627805
  44 H     1.0000    0     1.008  -12.634524    0.732371    3.712681
  45 H     1.0000    0     1.008   -9.799885   -4.565875    0.197590
  46 H     1.0000    0     1.008    8.254689   -3.264441   -1.306976
  47 H     1.0000    0     1.008   -0.253191   -7.196811   -1.985837
  48 H     1.0000    0     1.008   -6.405347   -5.780682    3.161038
  49 H     1.0000    0     1.008    7.867945   -7.932001   -1.649601
  50 H     1.0000    0     1.008  -11.984579    3.281732    1.587418
  51 H     1.0000    0     1.008   -2.936450   -8.637988    3.429190
  52 H     1.0000    0     1.008   -8.683973    2.968412   -1.446406
  53 H     1.0000    0     1.008   -4.820424    4.492428   -3.520341
  54 H     1.0000    0     1.008   -4.651694    2.417761    5.639282
  55 H     1.0000    0     1.008    3.575670   -9.919907   -1.990340
  56 H     1.0000    0     1.008   -5.514746    0.958769   -8.616617
  57 H     1.0000    0     1.008    6.571841    0.626886   -5.526124
  58 H     1.0000    0     1.008  -11.156075    0.097500    0.740625
  59 H     1.0000    0     1.008  -11.118452   -2.373840   -3.724784
  60 H     1.0000    0     1.008   -0.786526    4.038115    3.532662
  61 H     1.0000    0     1.008    9.359153    0.370794    8.940853
  62 H     1.0000    0     1.008   10.644170    0.620382    4.435030
  63 H     1.0000    0     1.008  -10.039781   -0.016702   -7.631438
  64 H     1.0000    0     1.008    5.069537    1.838435   10.254642
  65 H     1.0000    0     1.008    0.092349   -9.823752    6.788374
  66 H     1.0000    0     1.008    0.407662   -1.236074    3.003700
  67 H     1.0000    0     1.008   10.544207    2.982531   -6.396322
  68 H     1.0000    0     1.008    2.111928    3.547964    7.000248
  69 H     1.0000    0     1.008    3.435471    3.769474    2.526469
  70 H     1.0000    0     1.008   11.213380    4.617238    1.552255
  71 H     1.0000    0     1.008   12.897250    5.008340   -2.811277
  72 H     1.0000    0     1.008    3.343862   -6.728007    8.250446
  73 H     1.0000    0     1.008    3.444372   -2.404393    6.339654
  74 N     7.0000    0    14.007   -0.258168   -2.078694   -1.779312
  75 N     7.0000    0    14.007    4.323998    0.029240   -1.160742
  76 O     8.0000    0    15.999   -8.954079    1.728147    3.570241

--------------------------------
INTERNAL COORDINATES (ANGSTROEM)
--------------------------------
 Br     0   0   0     0.000000000000     0.00000000     0.00000000
 C      1   0   0     5.046414172069     0.00000000     0.00000000
 C      2   1   0     2.459673191380   130.12706129     0.00000000
 C      2   1   3     6.002933649405    67.95921934   247.78771304
 C      4   2   1     2.453395065988     7.51654428   128.23151682
 C      3   2   1     1.381416378855    89.10594782   287.58001300
 C      5   4   2     1.404739598930    88.33985040   128.61694113
 C      2   1   3     1.449816712692    76.03825171   281.52818092
 C      4   2   1     1.402552914558    95.10328074   179.71324577
 C      2   1   3     1.415013700824    65.97630050   147.64086513
 C      3   2   1     1.418046394934    30.57211008   106.89950405
 C      4   2   1     1.411785684154    27.13230576    11.16886443
 C      6   3   2     1.416000960864   122.77904996     1.00127214
 C      9   4   2     1.399284121646   119.86879799   354.24059812
 C      3   2   1     3.705175569128   101.98636112    38.22588049
 C     15   3   2     2.830231503493    71.37268490   350.82799794
 C     16  15   3     1.403737078600    57.27041167   270.96335366
 C     10   2   1     1.384401761837   121.65205578   235.70092613
 C     11   3   2     1.420648584432   121.80598764   179.94994009
 C     16  15   3     1.394430491385   177.46120956   268.05416297
 C     17  16  15     1.408208304126   119.34519181   181.14616153
 C     20  16  17     1.387192749632   119.33038647     0.17761664
 C     21  17  16     1.390404705237   120.46413783   359.90940674
 C     13   6   3     2.505350584462    96.20245904   196.04605345
 C     24  13   6     1.407095961968    30.57920468   219.25629655
 C     19  11   3     1.382743237269   121.23176245   180.99401954
 C     12   4   2     2.384971117091    95.20160239   198.90558433
 C     27  12   4     1.413121987325   106.46395355    72.02200640
 C     27  12   4     4.861296090128    92.72740015   277.78453425
 C     29  27  12     1.398091845188    25.18157483   125.81842099
 C     29  27  12     1.397454821803    97.14474505   282.69290277
 C     30  29  27     1.404690721280   120.91476953    26.44252414
 C     27  12   4     1.423164992473   127.48516741   284.91089403
 C     24  13   6     1.397435078300   151.82417388   220.59806774
 C     28  27  12     1.392486190498   122.17643230   207.85280659
 C     25  24  13     1.407115818686   117.79515209   178.62625596
 C     31  29  27     1.399053238014   119.27596670   349.03174573
 C     37  31  29     1.387238424159   120.27285914     0.26098939
 C     33  27  12     1.406533294950   119.24050740   144.83448225
 C     39  33  27     1.395229703078   121.97434516     0.00000000
 C     34  24  13     1.398254248207   120.19682918   359.14337861
 C     36  25  24     1.394009025378   121.12270043     0.80119390
 Cu     1   2   3     2.423257762234    40.46419292   102.49133291
 H     10   2   1     1.089611033089   117.98622401    54.73311762
 H     15   3   2     1.094579304742   106.67727632   185.93409230
 H      3   2   1     1.090125277960   150.16072795   106.78570168
 H      4   2   1     1.090689537269   144.73089744   352.15514948
 H      7   5   4     1.090648186225   118.44916505   180.68283119
 H      6   3   2     1.091206266062   119.11977385   178.07809151
 H      9   4   2     1.091733620517   119.63676377   174.53504777
 H     15   3   2     1.099351501270   137.25219519    39.52150980
 H     24  13   6     1.090647998881    88.67917780    41.28098414
 H     16  15   3     1.086135119322    64.06735096    89.21667917
 H     20  16  53     1.086540459380   120.06349731     0.77982284
 H     21  17  16     1.088809801261   119.47119779   179.33018187
 H     14   9   4     1.091364095437   120.64776297   179.65192272
 H     18  10   2     1.090793515940   120.05003903   179.63012099
 H     28  27  12     1.091150365141   117.53908169    28.25510853
 H     15   3   2     1.098032383488    34.59398425    85.94229393
 H     19  11   3     1.091341861999   118.47040733     1.19407992
 H     23  21  17     1.086085579427   120.19751004   177.99744615
 H     29  27  12     1.090735265355   141.12593939    87.07853697
 H     30  29  27     1.090723657487   119.89293321   206.99122903
 H     26  19  11     1.091070984612   120.13172848   180.17595872
 H     31  29  27     1.090580533759   120.39797702   168.86905572
 H     34  24  13     1.091093356769   119.65944061   179.93295821
 H     36  25  24     1.089287126583   119.24829043   179.81385029
 H     35  28  27     1.091500495425   119.90312997   181.11001480
 H     37  31  29     1.090240670351   120.11566633   180.26809572
 H     38  37  31     1.085597003770   120.17386149   180.65241844
 H     39  33  27     1.091303737167   118.42015658   179.58402694
 H     40  39  33     1.090336911589   120.25251206   179.18307472
 H     41  34  24     1.090888080057   120.42738565   180.66821415
 H     42  36  25     1.090629056878   119.28556818   179.74439603
 N      8   2   1     1.369115412351   117.85529898   312.78754430
 N     12   4   2     1.369351505498   124.55032127   190.57513933
 O     17  16  15     1.349187013804   124.48077524     0.51158702

---------------------------
INTERNAL COORDINATES (A.U.)
---------------------------
 Br     0   0   0     0.000000000000     0.00000000     0.00000000
 C      1   0   0     9.536340743550     0.00000000     0.00000000
 C      2   1   0     4.648108710657   130.12706129     0.00000000
 C      2   1   3    11.343900597476    67.95921934   247.78771304
 C      4   2   1     4.636244773031     7.51654428   128.23151682
 C      3   2   1     2.610498632949    89.10594782   287.58001300
 C      5   4   2     2.654573131453    88.33985040   128.61694113
 C      2   1   3     2.739756531369    76.03825171   281.52818092
 C      4   2   1     2.650440896848    95.10328074   179.71324577
 C      2   1   3     2.673988370304    65.97630050   147.64086513
 C      3   2   1     2.679719331620    30.57211008   106.89950405
 C      4   2   1     2.667888302841    27.13230576    11.16886443
 C      6   3   2     2.675854021403   122.77904996     1.00127214
 C      9   4   2     2.644263773456   119.86879799   354.24059812
 C      3   2   1     7.001767103749   101.98636112    38.22588049
 C     15   3   2     5.348362437198    71.37268490   350.82799794
 C     16  15   3     2.652678642584    57.27041167   270.96335366
 C     10   2   1     2.616140189189   121.65205578   235.70092613
 C     11   3   2     2.684636757119   121.80598764   179.94994009
 C     16  15   3     2.635091741508   177.46120956   268.05416297
 C     17  16  15     2.661128034312   119.34519181   181.14616153
 C     20  16  17     2.621414391765   119.33038647     0.17761664
 C     21  17  16     2.627484108213   120.46413783   359.90940674
 C     13   6   3     4.734426474093    96.20245904   196.04605345
 C     24  13   6     2.659026012266    30.57920468   219.25629655
 C     19  11   3     2.613006031971   121.23176245   180.99401954
 C     12   4   2     4.506942248614    95.20160239   198.90558433
 C     27  12   4     2.670413549867   106.46395355    72.02200640
 C     27  12   4     9.186518266244    92.72740015   277.78453425
 C     29  27  12     2.642010697473    25.18157483   125.81842099
 C     29  27  12     2.640806897735    97.14474505   282.69290277
 C     30  29  27     2.654480766079   120.91476953    26.44252414
 C     27  12   4     2.689392079157   127.48516741   284.91089403
 C     24  13   6     2.640769587922   151.82417388   220.59806774
 C     28  27  12     2.631417545308   122.17643230   207.85280659
 C     25  24  13     2.659063536024   117.79515209   178.62625596
 C     31  29  27     2.643827466623   119.27596670   349.03174573
 C     37  31  29     2.621500704112   120.27285914     0.26098939
 C     33  27  12     2.657962725698   119.24050740   144.83448225
 C     39  33  27     2.636602032729   121.97434516     0.00000000
 C     34  24  13     2.642317594703   120.19682918   359.14337861
 C     36  25  24     2.634295286179   121.12270043     0.80119390
 Cu     1   2   3     4.579293522521    40.46419292   102.49133291
 H     10   2   1     2.059066445038   117.98622401    54.73311762
 H     15   3   2     2.068455117820   106.67727632   185.93409230
 H      3   2   1     2.060038227008   150.16072795   106.78570168
 H      4   2   1     2.061104522572   144.73089744   352.15514948
 H      7   5   4     2.061026380423   118.44916505   180.68283119
 H      6   3   2     2.062080998475   119.11977385   178.07809151
 H      9   4   2     2.063077553971   119.63676377   174.53504777
 H     15   3   2     2.077473262315   137.25219519    39.52150980
 H     24  13   6     2.061026026395    88.67917780    41.28098414
 H     16  15   3     2.052497919953    64.06735096    89.21667917
 H     20  16  53     2.053263901654   120.06349731     0.77982284
 H     21  17  16     2.057552336313   119.47119779   179.33018187
 H     14   9   4     2.062379252770   120.64776297   179.65192272
 H     18  10   2     2.061301013784   120.05003903   179.63012099
 H     28  27  12     2.061975361044   117.53908169    28.25510853
 H     15   3   2     2.074980490968    34.59398425    85.94229393
 H     19  11   3     2.062337237661   118.47040733     1.19407992
 H     23  21  17     2.052404303119   120.19751004   177.99744615
 H     29  27  12     2.061190936131   141.12593939    87.07853697
 H     30  29  27     2.061169000440   119.89293321   206.99122903
 H     26  19  11     2.061825353585   120.13172848   180.17595872
 H     31  29  27     2.060898535790   120.39797702   168.86905572
 H     34  24  13     2.061867630835   119.65944061   179.93295821
 H     36  25  24     2.058454350447   119.24829043   179.81385029
 H     35  28  27     2.062637011393   119.90312997   181.11001480
 H     37  31  29     2.060256287027   120.11566633   180.26809572
 H     38  37  31     2.051481028930   120.17386149   180.65241844
 H     39  33  27     2.062265192170   118.42015658   179.58402694
 H     40  39  33     2.060438156608   120.25251206   179.18307472
 H     41  34  24     2.061479714067   120.42738565   180.66821415
 H     42  36  25     2.060990231196   119.28556818   179.74439603
 N      8   2   1     2.587253175075   117.85529898   312.78754430
 N     12   4   2     2.587699326463   124.55032127   190.57513933
 O     17  16  15     2.549593959532   124.48077524     0.51158702

---------------------
BASIS SET INFORMATION
---------------------
There are 6 groups of distinct atoms

 Group   1 Type Br  : 17s13p7d contracted to 6s5p3d pattern {842111/64111/511}
 Group   2 Type C   : 11s6p1d contracted to 5s3p1d pattern {62111/411/1}
 Group   3 Type Cu  : 17s11p6d contracted to 6s4p3d pattern {842111/6311/411}
 Group   4 Type H   : 5s contracted to 3s pattern {311}
 Group   5 Type N   : 11s6p1d contracted to 5s3p1d pattern {62111/411/1}
 Group   6 Type O   : 11s6p2d contracted to 5s3p2d pattern {62111/411/11}

Atom   0Br   basis set group =>   1
Atom   1C    basis set group =>   2
Atom   2C    basis set group =>   2
Atom   3C    basis set group =>   2
Atom   4C    basis set group =>   2
Atom   5C    basis set group =>   2
Atom   6C    basis set group =>   2
Atom   7C    basis set group =>   2
Atom   8C    basis set group =>   2
Atom   9C    basis set group =>   2
Atom  10C    basis set group =>   2
Atom  11C    basis set group =>   2
Atom  12C    basis set group =>   2
Atom  13C    basis set group =>   2
Atom  14C    basis set group =>   2
Atom  15C    basis set group =>   2
Atom  16C    basis set group =>   2
Atom  17C    basis set group =>   2
Atom  18C    basis set group =>   2
Atom  19C    basis set group =>   2
Atom  20C    basis set group =>   2
Atom  21C    basis set group =>   2
Atom  22C    basis set group =>   2
Atom  23C    basis set group =>   2
Atom  24C    basis set group =>   2
Atom  25C    basis set group =>   2
Atom  26C    basis set group =>   2
Atom  27C    basis set group =>   2
Atom  28C    basis set group =>   2
Atom  29C    basis set group =>   2
Atom  30C    basis set group =>   2
Atom  31C    basis set group =>   2
Atom  32C    basis set group =>   2
Atom  33C    basis set group =>   2
Atom  34C    basis set group =>   2
Atom  35C    basis set group =>   2
Atom  36C    basis set group =>   2
Atom  37C    basis set group =>   2
Atom  38C    basis set group =>   2
Atom  39C    basis set group =>   2
Atom  40C    basis set group =>   2
Atom  41C    basis set group =>   2
Atom  42Cu   basis set group =>   3
Atom  43H    basis set group =>   4
Atom  44H    basis set group =>   4
Atom  45H    basis set group =>   4
Atom  46H    basis set group =>   4
Atom  47H    basis set group =>   4
Atom  48H    basis set group =>   4
Atom  49H    basis set group =>   4
Atom  50H    basis set group =>   4
Atom  51H    basis set group =>   4
Atom  52H    basis set group =>   4
Atom  53H    basis set group =>   4
Atom  54H    basis set group =>   4
Atom  55H    basis set group =>   4
Atom  56H    basis set group =>   4
Atom  57H    basis set group =>   4
Atom  58H    basis set group =>   4
Atom  59H    basis set group =>   4
Atom  60H    basis set group =>   4
Atom  61H    basis set group =>   4
Atom  62H    basis set group =>   4
Atom  63H    basis set group =>   4
Atom  64H    basis set group =>   4
Atom  65H    basis set group =>   4
Atom  66H    basis set group =>   4
Atom  67H    basis set group =>   4
Atom  68H    basis set group =>   4
Atom  69H    basis set group =>   4
Atom  70H    basis set group =>   4
Atom  71H    basis set group =>   4
Atom  72H    basis set group =>   4
Atom  73H    basis set group =>   4
Atom  74N    basis set group =>   5
Atom  75N    basis set group =>   5
Atom  76O    basis set group =>   6
---------------------------------
AUXILIARY/J BASIS SET INFORMATION
---------------------------------
There are 6 groups of distinct atoms

 Group   1 Type Br  : 19s5p5d3f1g contracted to 8s4p3d2f1g pattern {121111111/2111/311/21/1}
 Group   2 Type C   : 8s3p3d contracted to 6s3p3d pattern {311111/111/111}
 Group   3 Type Cu  : 19s5p5d3f3g contracted to 8s5p4d3f3g pattern {121111111/11111/2111/111/111}
 Group   4 Type H   : 5s2p contracted to 3s1p pattern {311/2}
 Group   5 Type N   : 8s3p3d contracted to 6s3p3d pattern {311111/111/111}
 Group   6 Type O   : 8s3p3d contracted to 6s3p3d pattern {311111/111/111}

Atom   0Br   basis set group =>   1
Atom   1C    basis set group =>   2
Atom   2C    basis set group =>   2
Atom   3C    basis set group =>   2
Atom   4C    basis set group =>   2
Atom   5C    basis set group =>   2
Atom   6C    basis set group =>   2
Atom   7C    basis set group =>   2
Atom   8C    basis set group =>   2
Atom   9C    basis set group =>   2
Atom  10C    basis set group =>   2
Atom  11C    basis set group =>   2
Atom  12C    basis set group =>   2
Atom  13C    basis set group =>   2
Atom  14C    basis set group =>   2
Atom  15C    basis set group =>   2
Atom  16C    basis set group =>   2
Atom  17C    basis set group =>   2
Atom  18C    basis set group =>   2
Atom  19C    basis set group =>   2
Atom  20C    basis set group =>   2
Atom  21C    basis set group =>   2
Atom  22C    basis set group =>   2
Atom  23C    basis set group =>   2
Atom  24C    basis set group =>   2
Atom  25C    basis set group =>   2
Atom  26C    basis set group =>   2
Atom  27C    basis set group =>   2
Atom  28C    basis set group =>   2
Atom  29C    basis set group =>   2
Atom  30C    basis set group =>   2
Atom  31C    basis set group =>   2
Atom  32C    basis set group =>   2
Atom  33C    basis set group =>   2
Atom  34C    basis set group =>   2
Atom  35C    basis set group =>   2
Atom  36C    basis set group =>   2
Atom  37C    basis set group =>   2
Atom  38C    basis set group =>   2
Atom  39C    basis set group =>   2
Atom  40C    basis set group =>   2
Atom  41C    basis set group =>   2
Atom  42Cu   basis set group =>   3
Atom  43H    basis set group =>   4
Atom  44H    basis set group =>   4
Atom  45H    basis set group =>   4
Atom  46H    basis set group =>   4
Atom  47H    basis set group =>   4
Atom  48H    basis set group =>   4
Atom  49H    basis set group =>   4
Atom  50H    basis set group =>   4
Atom  51H    basis set group =>   4
Atom  52H    basis set group =>   4
Atom  53H    basis set group =>   4
Atom  54H    basis set group =>   4
Atom  55H    basis set group =>   4
Atom  56H    basis set group =>   4
Atom  57H    basis set group =>   4
Atom  58H    basis set group =>   4
Atom  59H    basis set group =>   4
Atom  60H    basis set group =>   4
Atom  61H    basis set group =>   4
Atom  62H    basis set group =>   4
Atom  63H    basis set group =>   4
Atom  64H    basis set group =>   4
Atom  65H    basis set group =>   4
Atom  66H    basis set group =>   4
Atom  67H    basis set group =>   4
Atom  68H    basis set group =>   4
Atom  69H    basis set group =>   4
Atom  70H    basis set group =>   4
Atom  71H    basis set group =>   4
Atom  72H    basis set group =>   4
Atom  73H    basis set group =>   4
Atom  74N    basis set group =>   5
Atom  75N    basis set group =>   5
Atom  76O    basis set group =>   6

Checking for AutoStart:
The File: CWMHSQPVYVHHDK-QJPJQTDYNZXKQF_0_1-FullTZ.gbw exists
Trying to determine its content:
     ... Fine, the file contains calculation information
     ... Fine, the calculation information was read
     ... Fine, the file contains a basis set
     ... Fine, the basis set was read
     ... Fine, the file contains a geometry
     ... Fine, the geometry was read
     ... Fine, the file contains a set of orbitals
     ... Fine, the orbitals can be read
     => possible old guess file was deleted
     => GBW file was renamed to GES file
     => GES file is set as startup file
     => Guess is set to MORead
     ... now leaving AutoStart



           ************************************************************
           *        Program running with 32 parallel MPI-processes    *
           *              working on a common directory               *
           ************************************************************
------------------------------------------------------------------------------
                           ORCA GTO INTEGRAL CALCULATION
                           -- RI-GTO INTEGRALS CHOSEN --
------------------------------------------------------------------------------
------------------------------------------------------------------------------
                   ___                                                        
                  /   \      - P O W E R E D   B Y -                         
                 /     \                                                     
                 |  |  |   _    _      __       _____    __    __             
                 |  |  |  | |  | |    /  \     |  _  \  |  |  /  |          
                  \  \/   | |  | |   /    \    | | | |  |  | /  /          
                 / \  \   | |__| |  /  /\  \   | |_| |  |  |/  /          
                |  |  |   |  __  | /  /__\  \  |    /   |      \           
                |  |  |   | |  | | |   __   |  |    \   |  |\   \          
                \     /   | |  | | |  |  |  |  | |\  \  |  | \   \       
                 \___/    |_|  |_| |__|  |__|  |_| \__\ |__|  \__/        
                                                                              
                      - O R C A' S   B I G   F R I E N D -                    
                                      &                                       
                       - I N T E G R A L  F E E D E R -                       
                                                                              
 v1 FN, 2020, v2 2021                                                         
------------------------------------------------------------------------------


Reading SHARK input file CWMHSQPVYVHHDK-QJPJQTDYNZXKQF_0_1-FullTZ.SHARKINP.tmp ... ok
----------------------
SHARK INTEGRAL PACKAGE
----------------------

Number of atoms                             ...     77
Number of basis functions                   ...   1003
Number of shells                            ...    517
Maximum angular momentum                    ...      2
Integral batch strategy                     ... SHARK/LIBINT Hybrid
RI-J (if used) integral strategy            ... SPLIT-RIJ (Revised 2003 algorithm where possible)
Printlevel                                  ...      1
Contraction scheme used                     ... SEGMENTED contraction
Coulomb Range Separation                    ... NOT USED
Exchange Range Separation                   ... NOT USED
Finite Nucleus Model                        ... NOT USED
Auxiliary Coulomb fitting basis             ... AVAILABLE
   # of basis functions in Aux-J            ...   1655
   # of shells in Aux-J                     ...    693
   Maximum angular momentum in Aux-J        ...      4
Auxiliary J/K fitting basis                 ... NOT available
Auxiliary Correlation fitting basis         ... NOT available
Auxiliary 'external' fitting basis          ... NOT available
Integral threshold                          ...     2.500000e-11
Primitive cut-off                           ...     2.500000e-12
Primitive pair pre-selection threshold      ...     2.500000e-12

Calculating pre-screening integrals         ... done (  0.9 sec) Dimension = 517
Organizing shell pair data                  ... done (  0.7 sec)
Shell pair information
Total number of shell pairs                 ...    133903
Shell pairs after pre-screening             ...     82903
Total number of primitive shell pairs       ...    520876
Primitive shell pairs kept                  ...    183959
          la=0 lb=0:  30044 shell pairs
          la=1 lb=0:  31342 shell pairs
          la=1 lb=1:   7912 shell pairs
          la=2 lb=0:   8322 shell pairs
          la=2 lb=1:   4701 shell pairs
          la=2 lb=2:    582 shell pairs

Calculating one electron integrals          ... done (  0.0 sec)
Calculating RI/J V-Matrix + Cholesky decomp.... done (  0.5 sec)
Calculating Nuclear repulsion               ... done (  0.0 sec) ENN=   7491.315329386427 Eh

SHARK setup successfully completed in   2.3 seconds

Maximum memory used throughout the entire GTOINT-calculation: 115.8 MB


           ************************************************************
           *        Program running with 32 parallel MPI-processes    *
           *              working on a common directory               *
           ************************************************************
-------------------------------------------------------------------------------
                                 ORCA SCF
-------------------------------------------------------------------------------

------------
SCF SETTINGS
------------
Hamiltonian:
 Density Functional     Method          .... DFT(GTOs)
 Exchange Functional    Exchange        .... B973C
 Correlation Functional Correlation     .... B973C
 Gradients option       PostSCFGGA      .... off
   Density functional embedding theory  .... OFF
 RI-approximation to the Coulomb term is turned on
   Number of AuxJ basis functions       .... 1655


General Settings:
 Integral files         IntName         .... CWMHSQPVYVHHDK-QJPJQTDYNZXKQF_0_1-FullTZ
 Hartree-Fock type      HFTyp           .... RHF
 Total Charge           Charge          ....   -1
 Multiplicity           Mult            ....    1
 Number of Electrons    NEL             ....  364
 Basis Dimension        Dim             .... 1003
 Nuclear Repulsion      ENuc            ....   7491.3153293864 Eh

Convergence Acceleration:
 DIIS                   CNVDIIS         .... on
   Start iteration      DIISMaxIt       ....    12
   Startup error        DIISStart       ....  0.200000
   # of expansion vecs  DIISMaxEq       ....     5
   Bias factor          DIISBfac        ....   1.050
   Max. coefficient     DIISMaxC        ....  10.000
 Trust-Rad. Augm. Hess. CNVTRAH         .... auto
   Auto Start mean grad. ratio tolernc. ....  1.125000
   Auto Start start iteration           ....     1
   Auto Start num. interpolation iter.  ....    10
   Max. Number of Micro iterations      ....    16
   Max. Number of Macro iterations      .... Maxiter - #DIIS iter
   Number of Davidson start vectors     ....     2
   Converg. threshold I  (grad. norm)   ....   1.000e-05
   Converg. threshold II (energy diff.) ....   1.000e-08
   Grad. Scal. Fac. for Micro threshold ....   0.100
   Minimum threshold for Micro iter.    ....   0.010
   NR start threshold (gradient norm)   ....   0.001
   Initial trust radius                 ....   0.400
   Minimum AH scaling param. (alpha)    ....   1.000
   Maximum AH scaling param. (alpha)    .... 1000.000
   Orbital update algorithm             .... Taylor
   White noise on init. David. guess    .... on
   Maximum white noise                  ....   0.010
   Quad. conv. algorithm                .... NR
   COSX micro iterations for RIJONX calc.... off
 SOSCF                  CNVSOSCF        .... off
 Level Shifting         CNVShift        .... on
   Level shift para.    LevelShift      ....    0.2500
   Turn off err/grad.   ShiftErr        ....    0.0010
 Zerner damping         CNVZerner       .... off
 Static damping         CNVDamp         .... on
   Fraction old density DampFac         ....    0.7000
   Max. Damping (<1)    DampMax         ....    0.9800
   Min. Damping (>=0)   DampMin         ....    0.0000
   Turn off err/grad.   DampErr         ....    0.1000
 Fernandez-Rico         CNVRico         .... off

SCF Procedure:
 Maximum # iterations   MaxIter         ....   500
 SCF integral mode      SCFMode         .... Direct
   Integral package                     .... SHARK and LIBINT hybrid scheme
 Reset frequency        DirectResetFreq ....    20
 Integral Threshold     Thresh          ....  2.500e-11 Eh
 Primitive CutOff       TCut            ....  2.500e-12 Eh

Convergence Tolerance:
 Convergence Check Mode ConvCheckMode   .... Total+1el-Energy
 Convergence forced     ConvForced      .... 0
 Energy Change          TolE            ....  1.000e-08 Eh
 1-El. energy change                    ....  1.000e-05 Eh
 DIIS Error             TolErr          ....  5.000e-07


Diagonalization of the overlap matrix:
Smallest eigenvalue                        ... 3.607e-06
Time for diagonalization                   ...    0.403 sec
Threshold for overlap eigenvalues          ... 1.000e-08
Number of eigenvalues below threshold      ... 0
Time for construction of square roots      ...    0.331 sec
Total time needed                          ...    0.737 sec

---------------------
INITIAL GUESS: MOREAD
---------------------
Guess MOs are being read from file: CWMHSQPVYVHHDK-QJPJQTDYNZXKQF_0_1-FullTZ.ges
Input Geometry matches current geometry (good)
Input basis set matches current basis set (good)
MOs were renormalized
MOs were reorthogonalized (Cholesky)
                      ------------------
                      INITIAL GUESS DONE (   0.4 sec)
                      ------------------
-------------------
DFT GRID GENERATION
-------------------

General Integration Accuracy     IntAcc      ... 4.388
Radial Grid Type                 RadialGrid  ... OptM3 with GC (2021)
Angular Grid (max. ang.)         AngularGrid ... 4 (Lebedev-302)
Angular grid pruning method      GridPruning ... 4 (adaptive)
Weight generation scheme         WeightScheme... Becke
Basis function cutoff            BFCut       ... 1.0000e-11
Integration weight cutoff        WCut        ... 1.0000e-14
Angular grids for H and He will be reduced by one unit
Partially contracted basis set               ... off
Rotationally invariant grid construction     ... off

Total number of grid points                  ...   379462
Total number of batches                      ...     5968
Average number of points per batch           ...       63
Average number of grid points per atom       ...     4928
Time for grid setup =    2.048 sec


--------------------
CPCM SOLVATION MODEL
--------------------
CPCM parameters:
  Epsilon                                         ...      47.2000
  Refrac                                          ...       1.4790
  Rsolv                                           ...       1.3000
  Surface type                                    ... GAUSSIAN VDW
  Epsilon function type                           ...         CPCM
Radii:
 Radius for Br used is    4.1952 Bohr (=   2.2200 Ang.)
 Radius for C  used is    3.8550 Bohr (=   2.0400 Ang.)
 Radius for Cu used is    3.1747 Bohr (=   1.6800 Ang.)
 Radius for H  used is    2.4944 Bohr (=   1.3200 Ang.)
 Radius for N  used is    3.5149 Bohr (=   1.8600 Ang.)
 Radius for O  used is    3.4469 Bohr (=   1.8240 Ang.)
Calculating surface                               ...        done! (  0.0s)
GEPOL surface points                              ...         3983
GEPOL Volume                                      ...    4918.2770
GEPOL Surface-area                                ...    2176.1523
Calculating surface distance matrix               ...        done! (  0.1s)
Performing Cholesky decomposition & store         ...        done! (  0.9s)
Overall time for CPCM initialization              ...                 1.0s
--------------
SCF ITERATIONS
--------------
ITER       Energy         Delta-E        Max-DP      RMS-DP      [F,P]     Damp
               ***  Starting incremental Fock matrix formation  ***
  0  -5980.6619151731   0.000000000000 0.32037675  0.00191026  0.0007657 0.7000
  1  -5980.6624336571  -0.000518483986 0.24530870  0.00137725  0.0002271 0.7000
                               ***Turning on DIIS***
  2  -5980.6627986214  -0.000364964372 0.57742779  0.00322221  0.0001588 0.0000
  3  -5980.6636501214  -0.000851499965 0.00179556  0.00000707  0.0001731 0.0000
  4  -5980.6636500645   0.000000056858 0.00065587  0.00000513  0.0000845 0.0000
  5  -5980.6636500866  -0.000000022084 0.00030065  0.00000223  0.0001541 0.0000
  6  -5980.6636501344  -0.000000047799 0.00019993  0.00000243  0.0000246 0.0000
  7  -5980.6636501272   0.000000007185 0.00071157  0.00000538  0.0000102 0.0000
  8  -5980.6636501528  -0.000000025545 0.00087497  0.00000371  0.0000031 0.0000
  9  -5980.6636501701  -0.000000017360 0.00072387  0.00000321  0.0000017 0.0000
                            ***DIIS convergence achieved***

               *****************************************************
               *                     SUCCESS                       *
               *           SCF CONVERGED AFTER  10 CYCLES          *
               *****************************************************


----------------
TOTAL SCF ENERGY
----------------

Total Energy       :        -5980.66365016 Eh         -162742.13157 eV

Components:
Nuclear Repulsion  :         7491.31532939 Eh          203849.05360 eV
Electronic Energy  :       -13471.97897954 Eh         -366591.18517 eV
One Electron Energy:       -23242.35067116 Eh         -632456.51523 eV
Two Electron Energy:         9770.37169161 Eh          265865.33006 eV
CPCM Dielectric    :           -0.09699321 Eh              -2.63932 eV

Virial components:
Potential Energy   :       -11948.70694139 Eh         -325140.84572 eV
Kinetic Energy     :         5968.04329124 Eh          162398.71415 eV
Virial Ratio       :            2.00211466


DFT components:
N(Alpha)           :      182.000290601721 electrons
N(Beta)            :      182.000290601721 electrons
N(Total)           :      364.000581203442 electrons
E(XC)              :     -415.371483614137 Eh       
DFET-embed. en.    :        0.000000000000 Eh       
CPCM Solvation Model Properties:
Surface-charge          :            0.94905321
Charge-correction       :           -0.00484017 Eh              -0.13171 eV
Free-energy (cav+disp)  :  This term is not implemented in the current solvation scheme

---------------
SCF CONVERGENCE
---------------

  Last Energy change         ...    1.4783e-08  Tolerance :   1.0000e-08
  Last MAX-Density change    ...    2.3890e-04  Tolerance :   1.0000e-07
  Last RMS-Density change    ...    1.5260e-06  Tolerance :   5.0000e-09
  Last DIIS Error            ...    5.2699e-07  Tolerance :   5.0000e-07

             **** THE GBW FILE WAS UPDATED (CWMHSQPVYVHHDK-QJPJQTDYNZXKQF_0_1-FullTZ.gbw) ****
             **** DENSITY CWMHSQPVYVHHDK-QJPJQTDYNZXKQF_0_1-FullTZ.scfp WAS UPDATED ****
             **** ENERGY FILE WAS UPDATED (CWMHSQPVYVHHDK-QJPJQTDYNZXKQF_0_1-FullTZ.en.tmp) ****
             **** THE GBW FILE WAS UPDATED (CWMHSQPVYVHHDK-QJPJQTDYNZXKQF_0_1-FullTZ.gbw) ****
             **** DENSITY CWMHSQPVYVHHDK-QJPJQTDYNZXKQF_0_1-FullTZ.scfp WAS UPDATED ****
----------------
ORBITAL ENERGIES
----------------

  NO   OCC          E(Eh)            E(eV) 
   0   2.0000    -480.879276    -13085.3903 
   1   2.0000    -321.325754     -8743.7183 
   2   2.0000     -61.943825     -1685.5772 
   3   2.0000     -55.898078     -1521.0640 
   4   2.0000     -55.894707     -1520.9723 
   5   2.0000     -55.893946     -1520.9516 
   6   2.0000     -38.293089     -1042.0079 
   7   2.0000     -33.615635      -914.7279 
   8   2.0000     -33.615273      -914.7181 
   9   2.0000     -33.614882      -914.7074 
  10   2.0000     -18.780970      -511.0562 
  11   2.0000     -13.947548      -379.5321 
  12   2.0000     -13.941471      -379.3667 
  13   2.0000      -9.956978      -270.9432 
  14   2.0000      -9.952623      -270.8246 
  15   2.0000      -9.936058      -270.3739 
  16   2.0000      -9.913685      -269.7651 
  17   2.0000      -9.913178      -269.7513 
  18   2.0000      -9.908429      -269.6221 
  19   2.0000      -9.905103      -269.5315 
  20   2.0000      -9.899430      -269.3772 
  21   2.0000      -9.899050      -269.3669 
  22   2.0000      -9.898152      -269.3424 
  23   2.0000      -9.894903      -269.2540 
  24   2.0000      -9.894806      -269.2514 
  25   2.0000      -9.892475      -269.1879 
  26   2.0000      -9.892058      -269.1766 
  27   2.0000      -9.891889      -269.1720 
  28   2.0000      -9.891311      -269.1563 
  29   2.0000      -9.890909      -269.1453 
  30   2.0000      -9.890751      -269.1410 
  31   2.0000      -9.890471      -269.1334 
  32   2.0000      -9.887873      -269.0627 
  33   2.0000      -9.887262      -269.0461 
  34   2.0000      -9.887133      -269.0426 
  35   2.0000      -9.886744      -269.0320 
  36   2.0000      -9.886430      -269.0234 
  37   2.0000      -9.886374      -269.0219 
  38   2.0000      -9.885715      -269.0040 
  39   2.0000      -9.885640      -269.0020 
  40   2.0000      -9.885482      -268.9976 
  41   2.0000      -9.884827      -268.9798 
  42   2.0000      -9.883808      -268.9521 
  43   2.0000      -9.883258      -268.9371 
  44   2.0000      -9.882303      -268.9111 
  45   2.0000      -9.881853      -268.8989 
  46   2.0000      -9.881821      -268.8980 
  47   2.0000      -9.881548      -268.8906 
  48   2.0000      -9.879314      -268.8298 
  49   2.0000      -9.873360      -268.6678 
  50   2.0000      -9.862790      -268.3802 
  51   2.0000      -9.860964      -268.3305 
  52   2.0000      -9.859952      -268.3029 
  53   2.0000      -9.859216      -268.2829 
  54   2.0000      -8.467133      -230.4024 
  55   2.0000      -6.351375      -172.8297 
  56   2.0000      -6.340256      -172.5271 
  57   2.0000      -6.337736      -172.4586 
  58   2.0000      -4.081696      -111.0686 
  59   2.0000      -2.623401       -71.3864 
  60   2.0000      -2.620353       -71.3034 
  61   2.0000      -2.616031       -71.1858 
  62   2.0000      -2.556663       -69.5703 
  63   2.0000      -2.554729       -69.5177 
  64   2.0000      -2.552804       -69.4653 
  65   2.0000      -2.544373       -69.2359 
  66   2.0000      -2.544356       -69.2355 
  67   2.0000      -0.991498       -26.9800 
  68   2.0000      -0.835673       -22.7398 
  69   2.0000      -0.815072       -22.1792 
  70   2.0000      -0.801812       -21.8184 
  71   2.0000      -0.784048       -21.3350 
  72   2.0000      -0.776770       -21.1370 
  73   2.0000      -0.773746       -21.0547 
  74   2.0000      -0.757541       -20.6137 
  75   2.0000      -0.745539       -20.2872 
  76   2.0000      -0.735934       -20.0258 
  77   2.0000      -0.726559       -19.7707 
  78   2.0000      -0.700545       -19.0628 
  79   2.0000      -0.693596       -18.8737 
  80   2.0000      -0.690936       -18.8013 
  81   2.0000      -0.682630       -18.5753 
  82   2.0000      -0.681066       -18.5328 
  83   2.0000      -0.675134       -18.3713 
  84   2.0000      -0.668405       -18.1882 
  85   2.0000      -0.661876       -18.0105 
  86   2.0000      -0.649973       -17.6867 
  87   2.0000      -0.648339       -17.6422 
  88   2.0000      -0.641936       -17.4680 
  89   2.0000      -0.627017       -17.0620 
  90   2.0000      -0.622741       -16.9457 
  91   2.0000      -0.604281       -16.4433 
  92   2.0000      -0.564693       -15.3661 
  93   2.0000      -0.562027       -15.2935 
  94   2.0000      -0.557061       -15.1584 
  95   2.0000      -0.551213       -14.9993 
  96   2.0000      -0.548694       -14.9307 
  97   2.0000      -0.538588       -14.6557 
  98   2.0000      -0.534310       -14.5393 
  99   2.0000      -0.533843       -14.5266 
 100   2.0000      -0.529527       -14.4092 
 101   2.0000      -0.517236       -14.0747 
 102   2.0000      -0.516075       -14.0431 
 103   2.0000      -0.497055       -13.5255 
 104   2.0000      -0.489834       -13.3291 
 105   2.0000      -0.487987       -13.2788 
 106   2.0000      -0.465323       -12.6621 
 107   2.0000      -0.462222       -12.5777 
 108   2.0000      -0.453594       -12.3429 
 109   2.0000      -0.445411       -12.1203 
 110   2.0000      -0.443421       -12.0661 
 111   2.0000      -0.441949       -12.0261 
 112   2.0000      -0.429828       -11.6962 
 113   2.0000      -0.425376       -11.5751 
 114   2.0000      -0.422330       -11.4922 
 115   2.0000      -0.417643       -11.3646 
 116   2.0000      -0.409835       -11.1522 
 117   2.0000      -0.409111       -11.1325 
 118   2.0000      -0.406154       -11.0520 
 119   2.0000      -0.401435       -10.9236 
 120   2.0000      -0.397209       -10.8086 
 121   2.0000      -0.395075       -10.7505 
 122   2.0000      -0.392151       -10.6710 
 123   2.0000      -0.391112       -10.6427 
 124   2.0000      -0.388038       -10.5591 
 125   2.0000      -0.381754       -10.3881 
 126   2.0000      -0.377525       -10.2730 
 127   2.0000      -0.373001       -10.1499 
 128   2.0000      -0.371319       -10.1041 
 129   2.0000      -0.367889       -10.0108 
 130   2.0000      -0.367053        -9.9880 
 131   2.0000      -0.364631        -9.9221 
 132   2.0000      -0.362846        -9.8735 
 133   2.0000      -0.359792        -9.7904 
 134   2.0000      -0.358327        -9.7506 
 135   2.0000      -0.355210        -9.6658 
 136   2.0000      -0.346447        -9.4273 
 137   2.0000      -0.342659        -9.3242 
 138   2.0000      -0.339300        -9.2328 
 139   2.0000      -0.333646        -9.0790 
 140   2.0000      -0.331322        -9.0157 
 141   2.0000      -0.327253        -8.9050 
 142   2.0000      -0.325222        -8.8498 
 143   2.0000      -0.322581        -8.7779 
 144   2.0000      -0.321368        -8.7449 
 145   2.0000      -0.319074        -8.6824 
 146   2.0000      -0.311043        -8.4639 
 147   2.0000      -0.310796        -8.4572 
 148   2.0000      -0.305778        -8.3206 
 149   2.0000      -0.302444        -8.2299 
 150   2.0000      -0.297445        -8.0939 
 151   2.0000      -0.295288        -8.0352 
 152   2.0000      -0.292253        -7.9526 
 153   2.0000      -0.290599        -7.9076 
 154   2.0000      -0.289347        -7.8735 
 155   2.0000      -0.287203        -7.8152 
 156   2.0000      -0.283533        -7.7153 
 157   2.0000      -0.281362        -7.6562 
 158   2.0000      -0.278849        -7.5879 
 159   2.0000      -0.273556        -7.4438 
 160   2.0000      -0.270277        -7.3546 
 161   2.0000      -0.260510        -7.0888 
 162   2.0000      -0.245682        -6.6853 
 163   2.0000      -0.238885        -6.5004 
 164   2.0000      -0.236706        -6.4411 
 165   2.0000      -0.235734        -6.4147 
 166   2.0000      -0.232059        -6.3146 
 167   2.0000      -0.224657        -6.1132 
 168   2.0000      -0.218972        -5.9585 
 169   2.0000      -0.216785        -5.8990 
 170   2.0000      -0.212507        -5.7826 
 171   2.0000      -0.206425        -5.6171 
 172   2.0000      -0.199734        -5.4350 
 173   2.0000      -0.197915        -5.3855 
 174   2.0000      -0.189337        -5.1521 
 175   2.0000      -0.186453        -5.0737 
 176   2.0000      -0.182611        -4.9691 
 177   2.0000      -0.180856        -4.9213 
 178   2.0000      -0.172871        -4.7041 
 179   2.0000      -0.148545        -4.0421 
 180   2.0000      -0.132678        -3.6104 
 181   2.0000      -0.112406        -3.0587 
 182   0.0000      -0.058425        -1.5898 
 183   0.0000      -0.054981        -1.4961 
 184   0.0000      -0.049006        -1.3335 
 185   0.0000      -0.044631        -1.2145 
 186   0.0000      -0.038608        -1.0506 
 187   0.0000      -0.034129        -0.9287 
 188   0.0000      -0.032345        -0.8802 
 189   0.0000      -0.029117        -0.7923 
 190   0.0000      -0.023099        -0.6285 
 191   0.0000      -0.013848        -0.3768 
 192   0.0000      -0.009227        -0.2511 
 193   0.0000       0.002218         0.0604 
 194   0.0000       0.010579         0.2879 
 195   0.0000       0.015525         0.4225 
 196   0.0000       0.023042         0.6270 
 197   0.0000       0.037793         1.0284 
 198   0.0000       0.043351         1.1796 
 199   0.0000       0.047092         1.2814 
 200   0.0000       0.049895         1.3577 
 201   0.0000       0.056670         1.5421 
 202   0.0000       0.059909         1.6302 
 203   0.0000       0.061515         1.6739 
 204   0.0000       0.064167         1.7461 
 205   0.0000       0.066502         1.8096 
 206   0.0000       0.071465         1.9447 
 207   0.0000       0.071711         1.9513 
 208   0.0000       0.076111         2.0711 
 209   0.0000       0.078015         2.1229 
 210   0.0000       0.086245         2.3468 
 211   0.0000       0.088651         2.4123 
 212   0.0000       0.089392         2.4325 
 213   0.0000       0.090512         2.4630 
 214   0.0000       0.095357         2.5948 
 215   0.0000       0.096644         2.6298 
 216   0.0000       0.099404         2.7049 
 217   0.0000       0.100851         2.7443 
 218   0.0000       0.101632         2.7655 
 219   0.0000       0.103437         2.8147 
 220   0.0000       0.106136         2.8881 
 221   0.0000       0.107320         2.9203 
 222   0.0000       0.110900         3.0177 
 223   0.0000       0.113300         3.0831 
 224   0.0000       0.115795         3.1509 
 225   0.0000       0.117815         3.2059 
 226   0.0000       0.120760         3.2861 
 227   0.0000       0.122109         3.3228 
 228   0.0000       0.123424         3.3585 
 229   0.0000       0.129095         3.5129 
 230   0.0000       0.129355         3.5199 
 231   0.0000       0.131305         3.5730 
 232   0.0000       0.135705         3.6927 
 233   0.0000       0.139909         3.8071 
 234   0.0000       0.141222         3.8428 
 235   0.0000       0.144817         3.9407 
 236   0.0000       0.148312         4.0358 
 237   0.0000       0.152539         4.1508 
 238   0.0000       0.156996         4.2721 
 239   0.0000       0.157067         4.2740 
 240   0.0000       0.158021         4.3000 
 241   0.0000       0.160748         4.3742 
 242   0.0000       0.165185         4.4949 
 243   0.0000       0.168761         4.5922 
 244   0.0000       0.171734         4.6731 
 245   0.0000       0.173813         4.7297 
 246   0.0000       0.174724         4.7545 
 247   0.0000       0.178698         4.8626 
 248   0.0000       0.184774         5.0280 
 249   0.0000       0.187462         5.1011 
 250   0.0000       0.189118         5.1462 
 251   0.0000       0.190899         5.1946 
 252   0.0000       0.192813         5.2467 
 253   0.0000       0.193965         5.2780 
 254   0.0000       0.196141         5.3373 
 255   0.0000       0.199751         5.4355 
 256   0.0000       0.202244         5.5033 
 257   0.0000       0.205474         5.5912 
 258   0.0000       0.206432         5.6173 
 259   0.0000       0.207225         5.6389 
 260   0.0000       0.208341         5.6693 
 261   0.0000       0.210224         5.7205 
 262   0.0000       0.212079         5.7710 
 263   0.0000       0.213372         5.8061 
 264   0.0000       0.216544         5.8925 
 265   0.0000       0.219606         5.9758 
 266   0.0000       0.221447         6.0259 
 267   0.0000       0.222075         6.0430 
 268   0.0000       0.223380         6.0785 
 269   0.0000       0.225880         6.1465 
 270   0.0000       0.229039         6.2325 
 271   0.0000       0.231272         6.2932 
 272   0.0000       0.233049         6.3416 
 273   0.0000       0.234196         6.3728 
 274   0.0000       0.237787         6.4705 
 275   0.0000       0.240259         6.5378 
 276   0.0000       0.244446         6.6517 
 277   0.0000       0.246155         6.6982 
 278   0.0000       0.247518         6.7353 
 279   0.0000       0.250730         6.8227 
 280   0.0000       0.254207         6.9173 
 281   0.0000       0.254911         6.9365 
 282   0.0000       0.256462         6.9787 
 283   0.0000       0.258150         7.0246 
 284   0.0000       0.260572         7.0905 
 285   0.0000       0.261499         7.1158 
 286   0.0000       0.265561         7.2263 
 287   0.0000       0.269218         7.3258 
 288   0.0000       0.269548         7.3348 
 289   0.0000       0.271251         7.3811 
 290   0.0000       0.274728         7.4757 
 291   0.0000       0.277277         7.5451 
 292   0.0000       0.282382         7.6840 
 293   0.0000       0.283492         7.7142 
 294   0.0000       0.284800         7.7498 
 295   0.0000       0.285170         7.7599 
 296   0.0000       0.290504         7.9050 
 297   0.0000       0.292246         7.9524 
 298   0.0000       0.294949         8.0260 
 299   0.0000       0.298027         8.1097 
 300   0.0000       0.299142         8.1401 
 301   0.0000       0.301627         8.2077 
 302   0.0000       0.302334         8.2269 
 303   0.0000       0.308133         8.3847 
 304   0.0000       0.308485         8.3943 
 305   0.0000       0.310904         8.4601 
 306   0.0000       0.312246         8.4966 
 307   0.0000       0.313679         8.5356 
 308   0.0000       0.318067         8.6550 
 309   0.0000       0.319345         8.6898 
 310   0.0000       0.321619         8.7517 
 311   0.0000       0.323173         8.7940 
 312   0.0000       0.326760         8.8916 
 313   0.0000       0.327701         8.9172 
 314   0.0000       0.328689         8.9441 
 315   0.0000       0.330366         8.9897 
 316   0.0000       0.330761         9.0005 
 317   0.0000       0.334800         9.1104 
 318   0.0000       0.337649         9.1879 
 319   0.0000       0.339540         9.2394 
 320   0.0000       0.345474         9.4008 
 321   0.0000       0.347076         9.4444 
 322   0.0000       0.348596         9.4858 
 323   0.0000       0.350879         9.5479 
 324   0.0000       0.353147         9.6096 
 325   0.0000       0.354730         9.6527 
 326   0.0000       0.355816         9.6822 
 327   0.0000       0.358577         9.7574 
 328   0.0000       0.359859         9.7923 
 329   0.0000       0.361757         9.8439 
 330   0.0000       0.364687         9.9236 
 331   0.0000       0.367422         9.9981 
 332   0.0000       0.369355        10.0506 
 333   0.0000       0.371035        10.0964 
 334   0.0000       0.374302        10.1853 
 335   0.0000       0.375373        10.2144 
 336   0.0000       0.376050        10.2328 
 337   0.0000       0.379056        10.3146 
 338   0.0000       0.383298        10.4301 
 339   0.0000       0.384838        10.4720 
 340   0.0000       0.388461        10.5706 
 341   0.0000       0.388676        10.5764 
 342   0.0000       0.390154        10.6166 
 343   0.0000       0.393788        10.7155 
 344   0.0000       0.396796        10.7974 
 345   0.0000       0.397934        10.8283 
 346   0.0000       0.402262        10.9461 
 347   0.0000       0.404635        11.0107 
 348   0.0000       0.405529        11.0350 
 349   0.0000       0.410010        11.1569 
 350   0.0000       0.411127        11.1873 
 351   0.0000       0.412343        11.2204 
 352   0.0000       0.414004        11.2656 
 353   0.0000       0.415866        11.3163 
 354   0.0000       0.417695        11.3660 
 355   0.0000       0.418456        11.3868 
 356   0.0000       0.422553        11.4983 
 357   0.0000       0.424935        11.5631 
 358   0.0000       0.426512        11.6060 
 359   0.0000       0.427887        11.6434 
 360   0.0000       0.430053        11.7023 
 361   0.0000       0.431407        11.7392 
 362   0.0000       0.434781        11.8310 
 363   0.0000       0.435344        11.8463 
 364   0.0000       0.437714        11.9108 
 365   0.0000       0.440483        11.9862 
 366   0.0000       0.442293        12.0354 
 367   0.0000       0.445500        12.1227 
 368   0.0000       0.446206        12.1419 
 369   0.0000       0.449982        12.2446 
 370   0.0000       0.451147        12.2763 
 371   0.0000       0.452853        12.3228 
 372   0.0000       0.454593        12.3701 
 373   0.0000       0.457516        12.4497 
 374   0.0000       0.459887        12.5142 
 375   0.0000       0.462423        12.5832 
 376   0.0000       0.465135        12.6570 
 377   0.0000       0.467600        12.7240 
 378   0.0000       0.468505        12.7487 
 379   0.0000       0.473746        12.8913 
 380   0.0000       0.475772        12.9464 
 381   0.0000       0.478090        13.0095 
 382   0.0000       0.478699        13.0261 
 383   0.0000       0.484335        13.1794 
 384   0.0000       0.485933        13.2229 
 385   0.0000       0.488093        13.2817 
 386   0.0000       0.489725        13.3261 
 387   0.0000       0.492462        13.4006 
 388   0.0000       0.494194        13.4477 
 389   0.0000       0.498808        13.5733 
 390   0.0000       0.501456        13.6453 
 391   0.0000       0.502282        13.6678 
 392   0.0000       0.503553        13.7024 
 393   0.0000       0.507684        13.8148 
 394   0.0000       0.512607        13.9487 
 395   0.0000       0.515741        14.0340 
 396   0.0000       0.516339        14.0503 
 397   0.0000       0.521043        14.1783 
 398   0.0000       0.524303        14.2670 
 399   0.0000       0.526105        14.3160 
 400   0.0000       0.527632        14.3576 
 401   0.0000       0.528998        14.3948 
 402   0.0000       0.533672        14.5219 
 403   0.0000       0.536022        14.5859 
 404   0.0000       0.538781        14.6610 
 405   0.0000       0.539669        14.6851 
 406   0.0000       0.544816        14.8252 
 407   0.0000       0.546425        14.8690 
 408   0.0000       0.548389        14.9224 
 409   0.0000       0.551527        15.0078 
 410   0.0000       0.551649        15.0111 
 411   0.0000       0.560053        15.2398 
 412   0.0000       0.562315        15.3014 
 413   0.0000       0.565253        15.3813 
 414   0.0000       0.567119        15.4321 
 415   0.0000       0.570977        15.5371 
 416   0.0000       0.574266        15.6266 
 417   0.0000       0.579750        15.7758 
 418   0.0000       0.582237        15.8435 
 419   0.0000       0.585061        15.9203 
 420   0.0000       0.590566        16.0701 
 421   0.0000       0.593871        16.1601 
 422   0.0000       0.598724        16.2921 
 423   0.0000       0.600683        16.3454 
 424   0.0000       0.606484        16.5033 
 425   0.0000       0.608941        16.5701 
 426   0.0000       0.609944        16.5974 
 427   0.0000       0.616467        16.7749 
 428   0.0000       0.622463        16.9381 
 429   0.0000       0.624686        16.9986 
 430   0.0000       0.628715        17.1082 
 431   0.0000       0.634666        17.2701 
 432   0.0000       0.638526        17.3752 
 433   0.0000       0.640202        17.4208 
 434   0.0000       0.642466        17.4824 
 435   0.0000       0.645071        17.5533 
 436   0.0000       0.646787        17.6000 
 437   0.0000       0.650846        17.7104 
 438   0.0000       0.654362        17.8061 
 439   0.0000       0.657262        17.8850 
 440   0.0000       0.661469        17.9995 
 441   0.0000       0.663844        18.0641 
 442   0.0000       0.665090        18.0980 
 443   0.0000       0.666462        18.1354 
 444   0.0000       0.672835        18.3088 
 445   0.0000       0.673733        18.3332 
 446   0.0000       0.675234        18.3741 
 447   0.0000       0.679773        18.4976 
 448   0.0000       0.681840        18.5538 
 449   0.0000       0.685583        18.6557 
 450   0.0000       0.688598        18.7377 
 451   0.0000       0.690575        18.7915 
 452   0.0000       0.691255        18.8100 
 453   0.0000       0.693643        18.8750 
 454   0.0000       0.696521        18.9533 
 455   0.0000       0.700265        19.0552 
 456   0.0000       0.704362        19.1667 
 457   0.0000       0.706029        19.2120 
 458   0.0000       0.711079        19.3494 
 459   0.0000       0.713327        19.4106 
 460   0.0000       0.714276        19.4364 
 461   0.0000       0.721794        19.6410 
 462   0.0000       0.723708        19.6931 
 463   0.0000       0.731834        19.9142 
 464   0.0000       0.733445        19.9580 
 465   0.0000       0.737972        20.0812 
 466   0.0000       0.738528        20.0964 
 467   0.0000       0.749430        20.3930 
 468   0.0000       0.751908        20.4605 
 469   0.0000       0.754115        20.5205 
 470   0.0000       0.756051        20.5732 
 471   0.0000       0.764745        20.8098 
 472   0.0000       0.766490        20.8573 
 473   0.0000       0.767437        20.8830 
 474   0.0000       0.774807        21.0836 
 475   0.0000       0.778148        21.1745 
 476   0.0000       0.780392        21.2356 
 477   0.0000       0.784957        21.3598 
 478   0.0000       0.788407        21.4536 
 479   0.0000       0.796311        21.6687 
 480   0.0000       0.801726        21.8161 
 481   0.0000       0.805502        21.9188 
 482   0.0000       0.809589        22.0300 
 483   0.0000       0.813497        22.1364 
 484   0.0000       0.817836        22.2544 
 485   0.0000       0.821813        22.3627 
 486   0.0000       0.826629        22.4937 
 487   0.0000       0.837337        22.7851 
 488   0.0000       0.846816        23.0430 
 489   0.0000       0.850845        23.1527 
 490   0.0000       0.860002        23.4018 
 491   0.0000       0.860892        23.4261 
 492   0.0000       0.868327        23.6284 
 493   0.0000       0.877405        23.8754 
 494   0.0000       0.890570        24.2336 
 495   0.0000       0.891377        24.2556 
 496   0.0000       0.901855        24.5407 
 497   0.0000       0.906384        24.6640 
 498   0.0000       0.912114        24.8199 
 499   0.0000       0.919473        25.0201 
 500   0.0000       0.920819        25.0568 
 501   0.0000       0.931761        25.3545 
 502   0.0000       0.937833        25.5197 
 503   0.0000       0.949296        25.8317 
 504   0.0000       0.967243        26.3200 
 505   0.0000       0.985346        26.8126 
 506   0.0000       0.992492        27.0071 
 507   0.0000       1.009201        27.4617 
 508   0.0000       1.026057        27.9204 
 509   0.0000       1.033491        28.1227 
 510   0.0000       1.054299        28.6889 
 511   0.0000       1.060974        28.8706 
 512   0.0000       1.141989        31.0751 
 513   0.0000       1.149139        31.2697 
 514   0.0000       1.175754        31.9939 
 515   0.0000       1.197665        32.5901 
 516   0.0000       1.205104        32.7926 
 517   0.0000       1.214871        33.0583 
 518   0.0000       1.223326        33.2884 
 519   0.0000       1.225186        33.3390 
 520   0.0000       1.231286        33.5050 
 521   0.0000       1.238162        33.6921 
 522   0.0000       1.239857        33.7382 
 523   0.0000       1.253601        34.1122 
 524   0.0000       1.258793        34.2535 
 525   0.0000       1.269549        34.5462 
 526   0.0000       1.270466        34.5711 
 527   0.0000       1.277536        34.7635 
 528   0.0000       1.284272        34.9468 
 529   0.0000       1.289385        35.0859 
 530   0.0000       1.293020        35.1849 
 531   0.0000       1.298963        35.3466 
 532   0.0000       1.301299        35.4101 
 533   0.0000       1.307827        35.5878 
 534   0.0000       1.311909        35.6989 
 535   0.0000       1.317600        35.8537 
 536   0.0000       1.319581        35.9076 
 537   0.0000       1.321219        35.9522 
 538   0.0000       1.323692        36.0195 
 539   0.0000       1.326688        36.1010 
 540   0.0000       1.328132        36.1403 
 541   0.0000       1.334633        36.3172 
 542   0.0000       1.339700        36.4551 
 543   0.0000       1.342951        36.5436 
 544   0.0000       1.345656        36.6172 
 545   0.0000       1.348959        36.7070 
 546   0.0000       1.350865        36.7589 
 547   0.0000       1.354439        36.8562 
 548   0.0000       1.358088        36.9555 
 549   0.0000       1.359095        36.9828 
 550   0.0000       1.360574        37.0231 
 551   0.0000       1.365027        37.1443 
 552   0.0000       1.366656        37.1886 
 553   0.0000       1.369441        37.2644 
 554   0.0000       1.372634        37.3513 
 555   0.0000       1.373539        37.3759 
 556   0.0000       1.375077        37.4178 
 557   0.0000       1.377055        37.4716 
 558   0.0000       1.378417        37.5086 
 559   0.0000       1.379809        37.5465 
 560   0.0000       1.383578        37.6491 
 561   0.0000       1.385943        37.7134 
 562   0.0000       1.387177        37.7470 
 563   0.0000       1.390275        37.8313 
 564   0.0000       1.392017        37.8787 
 565   0.0000       1.394004        37.9328 
 566   0.0000       1.397280        38.0219 
 567   0.0000       1.402131        38.1539 
 568   0.0000       1.404130        38.2083 
 569   0.0000       1.406294        38.2672 
 570   0.0000       1.407729        38.3063 
 571   0.0000       1.415438        38.5160 
 572   0.0000       1.417964        38.5848 
 573   0.0000       1.422352        38.7042 
 574   0.0000       1.424413        38.7603 
 575   0.0000       1.427760        38.8513 
 576   0.0000       1.430749        38.9327 
 577   0.0000       1.433173        38.9986 
 578   0.0000       1.435884        39.0724 
 579   0.0000       1.439974        39.1837 
 580   0.0000       1.442578        39.2545 
 581   0.0000       1.447862        39.3983 
 582   0.0000       1.452407        39.5220 
 583   0.0000       1.459645        39.7190 
 584   0.0000       1.461068        39.7577 
 585   0.0000       1.463421        39.8217 
 586   0.0000       1.469098        39.9762 
 587   0.0000       1.470397        40.0115 
 588   0.0000       1.471759        40.0486 
 589   0.0000       1.475519        40.1509 
 590   0.0000       1.477394        40.2019 
 591   0.0000       1.480346        40.2823 
[...]
176:   1464.62   0.002482   12.54  0.000529  ( 0.017401  0.014933  0.001733)
177:   1466.24   0.011977   60.53  0.002549  (-0.027652 -0.033893  0.025214)
178:   1476.46   0.080217  405.38  0.016955  ( 0.059255  0.115915  0.002669)
179:   1480.20   0.015847   80.08  0.003341  (-0.045898 -0.017052  0.030717)
180:   1483.12   0.057062  288.37  0.012006  ( 0.078819 -0.072550 -0.023034)
181:   1491.09   0.002625   13.27  0.000549  (-0.012636  0.014822  0.013038)
182:   1501.17   0.029688  150.03  0.006171  ( 0.067917  0.025259 -0.030343)
183:   1504.42   0.010099   51.04  0.002095  (-0.038467 -0.011181  0.022138)
184:   1507.73   0.018381   92.89  0.003804  (-0.027249 -0.040338  0.037878)
185:   1514.11   0.010699   54.07  0.002205  (-0.044550 -0.006080 -0.013544)
186:   1516.20   0.008062   40.74  0.001659  ( 0.026286  0.007869  0.030106)
187:   1527.62   0.026778  135.33  0.005470  (-0.055160 -0.032647  0.036903)
188:   1534.29   0.000618    3.12  0.000126  (-0.009830  0.000053  0.005383)
189:   1539.21   0.013188   66.64  0.002674  (-0.042038 -0.018895 -0.023440)
190:   1550.43   0.026049  131.64  0.005243  ( 0.062335  0.036371  0.005877)
191:   1564.51   0.004318   21.82  0.000861  (-0.023116  0.003118  0.017809)
192:   1567.28   0.009141   46.20  0.001820  (-0.040867 -0.011310 -0.004701)
193:   1569.35   0.014708   74.33  0.002925  ( 0.045604 -0.014148  0.025392)
194:   1573.89   0.000434    2.19  0.000086  (-0.003202 -0.007963  0.003521)
195:   1580.31   0.007297   36.87  0.001441  ( 0.036521  0.003865 -0.009598)
196:   1581.87   0.029325  148.19  0.005785  ( 0.070130  0.011165 -0.027241)
197:   1593.02   0.010213   51.61  0.002001  ( 0.020625 -0.017578  0.035584)
198:   1597.98   0.000048    0.24  0.000009  (-0.000104  0.002604 -0.001605)
199:   1611.07   0.003123   15.78  0.000605  ( 0.006491  0.002891 -0.023547)
200:   2914.13   0.025941  131.10  0.002778  (-0.051628  0.007504 -0.007500)
201:   2981.24   0.008117   41.02  0.000850  (-0.001633 -0.028747 -0.004539)
202:   3023.45   0.006467   32.68  0.000667  ( 0.014703  0.007720 -0.019792)
203:   3024.65   0.000480    2.43  0.000050  ( 0.004930 -0.004989 -0.000561)
204:   3035.15   0.011262   56.91  0.001158  ( 0.013705 -0.031077 -0.002081)
205:   3036.95   0.004365   22.06  0.000448  ( 0.018497  0.007585 -0.006987)
206:   3037.54   0.006275   31.71  0.000645  ( 0.004157  0.012021 -0.021974)
207:   3038.69   0.000332    1.68  0.000034  (-0.002759  0.002194 -0.004660)
208:   3041.17   0.004574   23.12  0.000469  ( 0.002580  0.005926  0.020678)
209:   3041.59   0.000495    2.50  0.000051  (-0.000727  0.006990 -0.001171)
210:   3045.53   0.021837  110.36  0.002238  ( 0.043700  0.017693  0.003858)
211:   3045.65   0.006490   32.80  0.000665  (-0.021754 -0.009175  0.010374)
212:   3045.96   0.000498    2.52  0.000051  (-0.003719 -0.001094  0.005998)
213:   3049.07   0.004685   23.68  0.000480  (-0.015697 -0.003489 -0.014865)
214:   3050.97   0.013980   70.65  0.001430  (-0.014207 -0.012778 -0.032631)
215:   3051.47   0.000616    3.11  0.000063  (-0.004327 -0.005946  0.002991)
216:   3053.27   0.015695   79.31  0.001604  (-0.018647  0.035077  0.005094)
217:   3056.10   0.007682   38.82  0.000784  ( 0.018805 -0.006506  0.019710)
218:   3056.74   0.001820    9.20  0.000186  (-0.008518  0.010636 -0.000328)
219:   3058.06   0.023165  117.07  0.002364  ( 0.046530  0.011217 -0.008546)
220:   3058.89   0.013224   66.83  0.001349  ( 0.034381 -0.012546 -0.003098)
221:   3060.74   0.013944   70.47  0.001422  ( 0.002999  0.034635 -0.014597)
222:   3063.88   0.015157   76.60  0.001544  (-0.030800 -0.014625  0.019527)
223:   3064.82   0.013580   68.63  0.001383  ( 0.012653 -0.011186  0.033129)
224:   3067.77   0.001117    5.64  0.000114  (-0.000665  0.004086  0.009821)
225:   3068.85   0.013830   69.89  0.001406  ( 0.008113 -0.006540  0.036024)
226:   3078.96   0.002481   12.54  0.000251  (-0.006597 -0.002935  0.014119)
227:   3094.96   0.000522    2.64  0.000053  (-0.005012 -0.001210  0.005102)
228:   3100.94   0.001704    8.61  0.000171  ( 0.009836 -0.007503  0.004292)
229:   3108.70   0.000848    4.28  0.000085  (-0.008741 -0.000264 -0.002937)
230:   3110.04   0.001107    5.59  0.000111  (-0.005109  0.007429  0.005457)

* The epsilon (eps) is given for a Dirac delta lineshape.
** The dipole moment derivative (T) already includes vibrational overlap.

The first frequency considered to be a vibration is 7
The total number of vibrations considered is 224


--------------------------
THERMOCHEMISTRY AT 298.15K
--------------------------

Temperature         ... 298.15 K
Pressure            ... 1.00 atm
Total Mass          ... 711.16 AMU

Throughout the following assumptions are being made:
  (1) The electronic state is orbitally nondegenerate
  (2) There are no thermally accessible electronically excited states
  (3) Hindered rotations indicated by low frequency modes are not
      treated as such but are treated as vibrations and this may
      cause some error
  (4) All equations used are the standard statistical mechanics
      equations for an ideal gas
  (5) All vibrations are strictly harmonic

freq.      31.60  E(vib)   ...       0.55 
freq.      35.15  E(vib)   ...       0.54 
freq.      42.25  E(vib)   ...       0.53 
freq.      53.01  E(vib)   ...       0.52 
freq.      57.51  E(vib)   ...       0.51 
freq.      61.09  E(vib)   ...       0.51 
freq.      62.30  E(vib)   ...       0.51 
freq.      68.42  E(vib)   ...       0.50 
freq.      69.27  E(vib)   ...       0.50 
freq.      81.66  E(vib)   ...       0.48 
freq.      88.18  E(vib)   ...       0.48 
freq.     102.64  E(vib)   ...       0.46 
freq.     107.52  E(vib)   ...       0.45 
freq.     110.20  E(vib)   ...       0.45 
freq.     115.00  E(vib)   ...       0.44 
freq.     120.38  E(vib)   ...       0.44 
freq.     122.03  E(vib)   ...       0.44 
freq.     125.61  E(vib)   ...       0.43 
freq.     132.72  E(vib)   ...       0.42 
freq.     147.76  E(vib)   ...       0.41 
freq.     157.12  E(vib)   ...       0.40 
freq.     158.97  E(vib)   ...       0.39 
freq.     174.71  E(vib)   ...       0.38 
freq.     179.72  E(vib)   ...       0.37 
freq.     191.13  E(vib)   ...       0.36 
freq.     206.90  E(vib)   ...       0.35 
freq.     208.13  E(vib)   ...       0.34 
freq.     229.00  E(vib)   ...       0.32 
freq.     248.62  E(vib)   ...       0.31 
freq.     259.60  E(vib)   ...       0.30 
freq.     264.32  E(vib)   ...       0.29 
freq.     272.99  E(vib)   ...       0.29 
freq.     274.71  E(vib)   ...       0.28 
freq.     296.90  E(vib)   ...       0.27 
freq.     304.47  E(vib)   ...       0.26 
freq.     310.97  E(vib)   ...       0.26 
freq.     335.85  E(vib)   ...       0.24 
freq.     349.07  E(vib)   ...       0.23 
freq.     361.21  E(vib)   ...       0.22 
freq.     364.39  E(vib)   ...       0.22 
freq.     392.03  E(vib)   ...       0.20 
freq.     419.14  E(vib)   ...       0.18 
freq.     421.74  E(vib)   ...       0.18 
freq.     422.30  E(vib)   ...       0.18 
freq.     433.52  E(vib)   ...       0.17 
freq.     436.72  E(vib)   ...       0.17 
freq.     451.90  E(vib)   ...       0.16 
freq.     468.42  E(vib)   ...       0.16 
freq.     477.34  E(vib)   ...       0.15 
freq.     481.01  E(vib)   ...       0.15 
freq.     483.41  E(vib)   ...       0.15 
freq.     494.85  E(vib)   ...       0.14 
freq.     508.31  E(vib)   ...       0.14 
freq.     527.26  E(vib)   ...       0.13 
freq.     529.34  E(vib)   ...       0.13 
freq.     534.16  E(vib)   ...       0.13 
freq.     546.26  E(vib)   ...       0.12 
freq.     558.92  E(vib)   ...       0.12 
freq.     564.07  E(vib)   ...       0.11 
freq.     588.82  E(vib)   ...       0.10 
freq.     592.34  E(vib)   ...       0.10 
freq.     602.43  E(vib)   ...       0.10 
freq.     609.15  E(vib)   ...       0.10 
freq.     626.98  E(vib)   ...       0.09 
freq.     630.23  E(vib)   ...       0.09 
freq.     634.72  E(vib)   ...       0.09 
freq.     636.73  E(vib)   ...       0.09 
freq.     638.03  E(vib)   ...       0.09 
freq.     646.78  E(vib)   ...       0.09 
freq.     651.05  E(vib)   ...       0.08 
freq.     654.28  E(vib)   ...       0.08 
freq.     674.31  E(vib)   ...       0.08 
freq.     689.12  E(vib)   ...       0.07 
freq.     701.38  E(vib)   ...       0.07 
freq.     706.45  E(vib)   ...       0.07 
freq.     721.09  E(vib)   ...       0.07 
freq.     726.85  E(vib)   ...       0.06 
freq.     729.68  E(vib)   ...       0.06 
freq.     750.99  E(vib)   ...       0.06 
freq.     760.92  E(vib)   ...       0.06 
freq.     764.24  E(vib)   ...       0.06 
freq.     777.79  E(vib)   ...       0.05 
freq.     784.94  E(vib)   ...       0.05 
freq.     787.09  E(vib)   ...       0.05 
freq.     793.94  E(vib)   ...       0.05 
freq.     800.68  E(vib)   ...       0.05 
freq.     807.92  E(vib)   ...       0.05 
freq.     808.84  E(vib)   ...       0.05 
freq.     822.15  E(vib)   ...       0.05 
freq.     826.63  E(vib)   ...       0.04 
freq.     837.09  E(vib)   ...       0.04 
freq.     846.72  E(vib)   ...       0.04 
freq.     863.08  E(vib)   ...       0.04 
freq.     863.60  E(vib)   ...       0.04 
freq.     866.09  E(vib)   ...       0.04 
freq.     871.99  E(vib)   ...       0.04 
freq.     879.96  E(vib)   ...       0.04 
freq.     885.83  E(vib)   ...       0.04 
freq.     894.00  E(vib)   ...       0.03 
freq.     914.89  E(vib)   ...       0.03 
freq.     918.96  E(vib)   ...       0.03 
freq.     920.45  E(vib)   ...       0.03 
freq.     926.56  E(vib)   ...       0.03 
freq.     933.66  E(vib)   ...       0.03 
freq.     935.63  E(vib)   ...       0.03 
freq.     939.92  E(vib)   ...       0.03 
freq.     942.29  E(vib)   ...       0.03 
freq.     943.31  E(vib)   ...       0.03 
freq.     946.88  E(vib)   ...       0.03 
freq.     952.89  E(vib)   ...       0.03 
freq.     953.80  E(vib)   ...       0.03 
freq.     970.64  E(vib)   ...       0.03 
freq.     981.27  E(vib)   ...       0.02 
freq.     993.66  E(vib)   ...       0.02 
freq.     995.42  E(vib)   ...       0.02 
freq.     997.17  E(vib)   ...       0.02 
freq.    1018.39  E(vib)   ...       0.02 
freq.    1019.84  E(vib)   ...       0.02 
freq.    1031.69  E(vib)   ...       0.02 
freq.    1033.14  E(vib)   ...       0.02 
freq.    1036.83  E(vib)   ...       0.02 
freq.    1039.52  E(vib)   ...       0.02 
freq.    1051.76  E(vib)   ...       0.02 
freq.    1054.52  E(vib)   ...       0.02 
freq.    1065.82  E(vib)   ...       0.02 
freq.    1083.16  E(vib)   ...       0.02 
freq.    1086.29  E(vib)   ...       0.02 
freq.    1101.44  E(vib)   ...       0.02 
freq.    1113.00  E(vib)   ...       0.01 
freq.    1117.17  E(vib)   ...       0.01 
freq.    1129.68  E(vib)   ...       0.01 
freq.    1150.19  E(vib)   ...       0.01 
freq.    1158.18  E(vib)   ...       0.01 
freq.    1159.16  E(vib)   ...       0.01 
freq.    1166.85  E(vib)   ...       0.01 
freq.    1169.29  E(vib)   ...       0.01 
freq.    1171.49  E(vib)   ...       0.01 
freq.    1188.37  E(vib)   ...       0.01 
freq.    1192.65  E(vib)   ...       0.01 
freq.    1194.80  E(vib)   ...       0.01 
freq.    1197.79  E(vib)   ...       0.01 
freq.    1204.05  E(vib)   ...       0.01 
freq.    1214.47  E(vib)   ...       0.01 
freq.    1217.14  E(vib)   ...       0.01 
freq.    1218.78  E(vib)   ...       0.01 
freq.    1240.20  E(vib)   ...       0.01 
freq.    1249.23  E(vib)   ...       0.01 
freq.    1268.01  E(vib)   ...       0.01 
freq.    1273.52  E(vib)   ...       0.01 
freq.    1275.13  E(vib)   ...       0.01 
freq.    1278.41  E(vib)   ...       0.01 
freq.    1285.70  E(vib)   ...       0.01 
freq.    1297.98  E(vib)   ...       0.01 
freq.    1303.07  E(vib)   ...       0.01 
freq.    1309.44  E(vib)   ...       0.01 
freq.    1311.16  E(vib)   ...       0.01 
freq.    1314.41  E(vib)   ...       0.01 
freq.    1323.20  E(vib)   ...       0.01 
freq.    1329.99  E(vib)   ...       0.01 
freq.    1335.06  E(vib)   ...       0.01 
freq.    1346.16  E(vib)   ...       0.01 
freq.    1356.97  E(vib)   ...       0.01 
freq.    1360.06  E(vib)   ...       0.01 
freq.    1394.33  E(vib)   ...       0.00 
freq.    1414.44  E(vib)   ...       0.00 
freq.    1434.00  E(vib)   ...       0.00 
freq.    1442.84  E(vib)   ...       0.00 
freq.    1445.73  E(vib)   ...       0.00 
freq.    1458.05  E(vib)   ...       0.00 
freq.    1464.62  E(vib)   ...       0.00 
freq.    1466.24  E(vib)   ...       0.00 
freq.    1476.46  E(vib)   ...       0.00 
freq.    1480.20  E(vib)   ...       0.00 
freq.    1483.12  E(vib)   ...       0.00 
freq.    1491.09  E(vib)   ...       0.00 
freq.    1501.17  E(vib)   ...       0.00 
freq.    1504.42  E(vib)   ...       0.00 
freq.    1507.73  E(vib)   ...       0.00 
freq.    1514.11  E(vib)   ...       0.00 
freq.    1516.20  E(vib)   ...       0.00 
freq.    1527.62  E(vib)   ...       0.00 
freq.    1534.29  E(vib)   ...       0.00 
freq.    1539.21  E(vib)   ...       0.00 
freq.    1550.43  E(vib)   ...       0.00 
freq.    1564.51  E(vib)   ...       0.00 
freq.    1567.28  E(vib)   ...       0.00 
freq.    1569.35  E(vib)   ...       0.00 
freq.    1573.89  E(vib)   ...       0.00 
freq.    1580.31  E(vib)   ...       0.00 
freq.    1581.87  E(vib)   ...       0.00 
freq.    1593.02  E(vib)   ...       0.00 
freq.    1597.98  E(vib)   ...       0.00 
freq.    1611.07  E(vib)   ...       0.00 
freq.    2914.13  E(vib)   ...       0.00 
freq.    2981.24  E(vib)   ...       0.00 
freq.    3023.45  E(vib)   ...       0.00 
freq.    3024.65  E(vib)   ...       0.00 
freq.    3035.15  E(vib)   ...       0.00 
freq.    3036.95  E(vib)   ...       0.00 
freq.    3037.54  E(vib)   ...       0.00 
freq.    3038.69  E(vib)   ...       0.00 
freq.    3041.17  E(vib)   ...       0.00 
freq.    3041.59  E(vib)   ...       0.00 
freq.    3045.53  E(vib)   ...       0.00 
freq.    3045.65  E(vib)   ...       0.00 
freq.    3045.96  E(vib)   ...       0.00 
freq.    3049.07  E(vib)   ...       0.00 
freq.    3050.97  E(vib)   ...       0.00 
freq.    3051.47  E(vib)   ...       0.00 
freq.    3053.27  E(vib)   ...       0.00 
freq.    3056.10  E(vib)   ...       0.00 
freq.    3056.74  E(vib)   ...       0.00 
freq.    3058.06  E(vib)   ...       0.00 
freq.    3058.89  E(vib)   ...       0.00 
freq.    3060.74  E(vib)   ...       0.00 
freq.    3063.88  E(vib)   ...       0.00 
freq.    3064.82  E(vib)   ...       0.00 
freq.    3067.77  E(vib)   ...       0.00 
freq.    3068.85  E(vib)   ...       0.00 
freq.    3078.96  E(vib)   ...       0.00 
freq.    3094.96  E(vib)   ...       0.00 
freq.    3100.94  E(vib)   ...       0.00 
freq.    3108.70  E(vib)   ...       0.00 
freq.    3110.04  E(vib)   ...       0.00 

------------
INNER ENERGY
------------

The inner energy is: U= E(el) + E(ZPE) + E(vib) + E(rot) + E(trans)
    E(el)   - is the total energy from the electronic structure calculation
              = E(kin-el) + E(nuc-el) + E(el-el) + E(nuc-nuc)
    E(ZPE)  - the the zero temperature vibrational energy from the frequency calculation
    E(vib)  - the the finite temperature correction to E(ZPE) due to population
              of excited vibrational states
    E(rot)  - is the rotational thermal energy
    E(trans)- is the translational thermal energy

Summary of contributions to the inner energy U:
Electronic energy                ...  -5981.23510185 Eh
Zero point energy                ...      0.58765528 Eh     368.76 kcal/mol
Thermal vibrational correction   ...      0.03533012 Eh      22.17 kcal/mol
Thermal rotational correction    ...      0.00141627 Eh       0.89 kcal/mol
Thermal translational correction ...      0.00141627 Eh       0.89 kcal/mol
-----------------------------------------------------------------------
Total thermal energy                  -5980.60928391 Eh


Summary of corrections to the electronic energy:
(perhaps to be used in another calculation)
Total thermal correction                  0.03816267 Eh      23.95 kcal/mol
Non-thermal (ZPE) correction              0.58765528 Eh     368.76 kcal/mol
-----------------------------------------------------------------------
Total correction                          0.62581794 Eh     392.71 kcal/mol


--------
ENTHALPY
--------

The enthalpy is H = U + kB*T
                kB is Boltzmann's constant
Total free energy                 ...  -5980.60928391 Eh 
Thermal Enthalpy correction       ...      0.00094421 Eh       0.59 kcal/mol
-----------------------------------------------------------------------
Total Enthalpy                    ...  -5980.60833970 Eh


Note: Only C1 symmetry has been detected, increase convergence thresholds 
      if your molecule has a higher symmetry. Symmetry factor of 1.0 is   
      used for the rotational entropy correction. 
 

Note: Rotational entropy computed according to Herzberg 
Infrared and Raman Spectra, Chapter V,1, Van Nostrand Reinhold, 1945 
Point Group:  C1, Symmetry Number:   1  
Rotational constants in cm-1:     0.003080     0.001978     0.001756 

Vibrational entropy computed according to the QRRHO of S. Grimme
Chem.Eur.J. 2012 18 9955


-------
ENTROPY
-------

The entropy contributions are T*S = T*(S(el)+S(vib)+S(rot)+S(trans))
     S(el)   - electronic entropy
     S(vib)  - vibrational entropy
     S(rot)  - rotational entropy
     S(trans)- translational entropy
The entropies will be listed as multiplied by the temperature to get
units of energy

Electronic entropy                ...      0.00000000 Eh      0.00 kcal/mol
Vibrational entropy               ...      0.06173896 Eh     38.74 kcal/mol
Rotational entropy                ...      0.01817525 Eh     11.41 kcal/mol
Translational entropy             ...      0.02164958 Eh     13.59 kcal/mol
-----------------------------------------------------------------------
Final entropy term                ...      0.10156380 Eh     63.73 kcal/mol

In case the symmetry of your molecule has not been determined correctly
or in case you have a reason to use a different symmetry number we print 
out the resulting rotational entropy values for sn=1,12 :
 --------------------------------------------------------
|  sn= 1 | S(rot)=       0.01817525 Eh     11.41 kcal/mol|
|  sn= 2 | S(rot)=       0.01752080 Eh     10.99 kcal/mol|
|  sn= 3 | S(rot)=       0.01713796 Eh     10.75 kcal/mol|
|  sn= 4 | S(rot)=       0.01686634 Eh     10.58 kcal/mol|
|  sn= 5 | S(rot)=       0.01665565 Eh     10.45 kcal/mol|
|  sn= 6 | S(rot)=       0.01648351 Eh     10.34 kcal/mol|
|  sn= 7 | S(rot)=       0.01633796 Eh     10.25 kcal/mol|
|  sn= 8 | S(rot)=       0.01621188 Eh     10.17 kcal/mol|
|  sn= 9 | S(rot)=       0.01610067 Eh     10.10 kcal/mol|
|  sn=10 | S(rot)=       0.01600119 Eh     10.04 kcal/mol|
|  sn=11 | S(rot)=       0.01591120 Eh      9.98 kcal/mol|
|  sn=12 | S(rot)=       0.01582905 Eh      9.93 kcal/mol|
 --------------------------------------------------------


-------------------
GIBBS FREE ENERGY
-------------------

The Gibbs free energy is G = H - T*S

Total enthalpy                    ...  -5980.60833970 Eh 
Total entropy correction          ...     -0.10156380 Eh    -63.73 kcal/mol
-----------------------------------------------------------------------
Final Gibbs free energy         ...  -5980.70990350 Eh

For completeness - the Gibbs free energy minus the electronic energy
G-E(el)                           ...      0.52519836 Eh    329.57 kcal/mol



Timings for individual modules:

Sum of individual times         ...     2927.135 sec (=  48.786 min)
GTO integral calculation        ...        6.634 sec (=   0.111 min)   0.2 %
SCF iterations                  ...       53.663 sec (=   0.894 min)   1.8 %
SCF Gradient evaluation         ...       19.553 sec (=   0.326 min)   0.7 %
Numerical frequency calculation ...     2847.284 sec (=  47.455 min)  97.3 %
                             ****ORCA TERMINATED NORMALLY****
TOTAL RUN TIME: 0 days 0 hours 48 minutes 25 seconds 731 msec
