
                                 *****************
                                 * O   R   C   A *
                                 *****************

                                            #,                                       
                                            ###                                      
                                            ####                                     
                                            #####                                    
                                            ######                                   
                                           ########,                                 
                                     ,,################,,,,,                         
                               ,,#################################,,                 
                          ,,##########################################,,             
                       ,#########################################, ''#####,          
                    ,#############################################,,   '####,        
                  ,##################################################,,,,####,       
                ,###########''''           ''''###############################       
              ,#####''   ,,,,##########,,,,          '''####'''          '####       
            ,##' ,,,,###########################,,,                        '##       
           ' ,,###''''                  '''############,,,                           
         ,,##''                                '''############,,,,        ,,,,,,###''
      ,#''                                            '''#######################'''  
     '                                                          ''''####''''         
             ,#######,   #######,   ,#######,      ##                                
            ,#'     '#,  ##    ##  ,#'     '#,    #''#        ######   ,####,        
            ##       ##  ##   ,#'  ##            #'  '#       #        #'  '#        
            ##       ##  #######   ##           ,######,      #####,   #    #        
            '#,     ,#'  ##    ##  '#,     ,#' ,#      #,         ##   #,  ,#        
             '#######'   ##     ##  '#######'  #'      '#     #####' # '####'        



                  #######################################################
                  #                        -***-                        #
                  #          Department of theory and spectroscopy      #
                  #    Directorship and core code : Frank Neese         #
                  #        Max Planck Institute fuer Kohlenforschung    #
                  #                Kaiser Wilhelm Platz 1               #
                  #                 D-45470 Muelheim/Ruhr               #
                  #                      Germany                        #
                  #                                                     #
                  #                  All rights reserved                #
                  #                        -***-                        #
                  #######################################################


                         Program Version 5.0.1 -  RELEASE  -


 With contributions from (in alphabetic order):
   Daniel Aravena         : Magnetic Suceptibility
   Michael Atanasov       : Ab Initio Ligand Field Theory (pilot matlab implementation)
   Alexander A. Auer      : GIAO ZORA, VPT2 properties, NMR spectrum
   Ute Becker             : Parallelization
   Giovanni Bistoni       : ED, misc. LED, open-shell LED, HFLD
   Martin Brehm           : Molecular dynamics
   Dmytro Bykov           : SCF Hessian
   Vijay G. Chilkuri      : MRCI spin determinant printing, contributions to CSF-ICE
   Dipayan Datta          : RHF DLPNO-CCSD density
   Achintya Kumar Dutta   : EOM-CC, STEOM-CC
   Dmitry Ganyushin       : Spin-Orbit,Spin-Spin,Magnetic field MRCI
   Miquel Garcia          : C-PCM and meta-GGA Hessian, CC/C-PCM, Gaussian charge scheme
   Yang Guo               : DLPNO-NEVPT2, F12-NEVPT2, CIM, IAO-localization
   Andreas Hansen         : Spin unrestricted coupled pair/coupled cluster methods
   Benjamin Helmich-Paris : MC-RPA, TRAH-SCF, COSX integrals
   Lee Huntington         : MR-EOM, pCC
   Robert Izsak           : Overlap fitted RIJCOSX, COSX-SCS-MP3, EOM
   Marcus Kettner         : VPT2
   Christian Kollmar      : KDIIS, OOCD, Brueckner-CCSD(T), CCSD density, CASPT2, CASPT2-K
   Simone Kossmann        : Meta GGA functionals, TD-DFT gradient, OOMP2, MP2 Hessian
   Martin Krupicka        : Initial AUTO-CI
   Lucas Lang             : DCDCAS
   Marvin Lechner         : AUTO-CI (C++ implementation), FIC-MRCC
   Dagmar Lenk            : GEPOL surface, SMD
   Dimitrios Liakos       : Extrapolation schemes; Compound Job, initial MDCI parallelization
   Dimitrios Manganas     : Further ROCIS development; embedding schemes
   Dimitrios Pantazis     : SARC Basis sets
   Anastasios Papadopoulos: AUTO-CI, single reference methods and gradients
   Taras Petrenko         : DFT Hessian,TD-DFT gradient, ASA, ECA, R-Raman, ABS, FL, XAS/XES, NRVS
   Peter Pinski           : DLPNO-MP2, DLPNO-MP2 Gradient
   Christoph Reimann      : Effective Core Potentials
   Marius Retegan         : Local ZFS, SOC
   Christoph Riplinger    : Optimizer, TS searches, QM/MM, DLPNO-CCSD(T), (RO)-DLPNO pert. Triples
   Tobias Risthaus        : Range-separated hybrids, TD-DFT gradient, RPA, STAB
   Michael Roemelt        : Original ROCIS implementation
   Masaaki Saitow         : Open-shell DLPNO-CCSD energy and density
   Barbara Sandhoefer     : DKH picture change effects
   Avijit Sen             : IP-ROCIS
   Kantharuban Sivalingam : CASSCF convergence, NEVPT2, FIC-MRCI
   Bernardo de Souza      : ESD, SOC TD-DFT
   Georgi Stoychev        : AutoAux, RI-MP2 NMR, DLPNO-MP2 response
   Willem Van den Heuvel  : Paramagnetic NMR
   Boris Wezisla          : Elementary symmetry handling
   Frank Wennmohs         : Technical directorship


 We gratefully acknowledge several colleagues who have allowed us to
 interface, adapt or use parts of their codes:
   Stefan Grimme, W. Hujo, H. Kruse, P. Pracht,  : VdW corrections, initial TS optimization,
                  C. Bannwarth, S. Ehlert          DFT functionals, gCP, sTDA/sTD-DF
   Ed Valeev, F. Pavosevic, A. Kumar             : LibInt (2-el integral package), F12 methods
   Garnet Chan, S. Sharma, J. Yang, R. Olivares  : DMRG
   Ulf Ekstrom                                   : XCFun DFT Library
   Mihaly Kallay                                 : mrcc  (arbitrary order and MRCC methods)
   Jiri Pittner, Ondrej Demel                    : Mk-CCSD
   Frank Weinhold                                : gennbo (NPA and NBO analysis)
   Christopher J. Cramer and Donald G. Truhlar   : smd solvation model
   Lars Goerigk                                  : TD-DFT with DH, B97 family of functionals
   V. Asgeirsson, H. Jonsson                     : NEB implementation
   FAccTs GmbH                                   : IRC, NEB, NEB-TS, DLPNO-Multilevel, CI-OPT
                                                   MM, QMMM, 2- and 3-layer-ONIOM, Crystal-QMMM,
                                                   LR-CPCM, SF, NACMEs, symmetry and pop. for TD-DFT,
                                                   nearIR, NL-DFT gradient (VV10), updates on ESD,
                                                   ML-optimized integration grids
   S Lehtola, MJT Oliveira, MAL Marques          : LibXC Library
   Liviu Ungur et al                             : ANISO software


 Your calculation uses the libint2 library for the computation of 2-el integrals
 For citations please refer to: http://libint.valeyev.net

 Your ORCA version has been built with support for libXC version: 5.1.0
 For citations please refer to: https://tddft.org/programs/libxc/

 This ORCA versions uses:
   CBLAS   interface :  Fast vector & matrix operations
   LAPACKE interface :  Fast linear algebra routines
   SCALAPACK package :  Parallel linear algebra routines
   Shared memory     :  Shared parallel matrices
   BLAS/LAPACK       :  OpenBLAS 0.3.15  USE64BITINT DYNAMIC_ARCH NO_AFFINITY Zen SINGLE_THREADED
        Core in use  :  Zen
   Copyright (c) 2011-2014, The OpenBLAS Project


Your calculation utilizes the atom-pairwise dispersion correction
with the Becke-Johnson damping scheme (D3BJ)
Cite in your paper:
S.Grimme, S.Ehrlich, L.Goerigk, J Comput Chem, (2011), 32, 1456–1465 
S.Grimme, J.Antony, S.Ehrlich and H.Krieg, J.Chem.Phys., 132, (2010), 154104 
   

Your calculation employs the composite approach B97-3c by Grimme and coworkers.
For the correct reference, please check the publication list of the Grimme group:
http://www.thch.uni-bonn.de/tc/index.php?section=publikationen&subsection=grimme#2017
   

XCFun DFT library Copyright 2009-2010 Ulf Ekstrom and contributors.
See http://admol.org/xcfun for more information.
This is free software; see the source code for copying conditions.
There is ABSOLUTELY NO WARRANTY; not even for MERCHANTABILITY or FITNESS FOR A PARTICULAR PURPOSE.
For details see the documentation.
Scientific users of this library should cite U. Ekstrom, L. Visscher, R. Bast, A. J. Thorvaldsen and K. Ruud;
J.Chem.Theor.Comp. 2010, DOI: 10.1021/ct100117s
XCFun Version 0.99 

================================================================================

----- Orbital basis set information -----
Your calculation utilizes the basis: def2-SVP
   F. Weigend and R. Ahlrichs, Phys. Chem. Chem. Phys. 7, 3297 (2005).

The basis set includes atom-specific modifications.

Your calculation utilizes the basis: def2-TZVP
   F. Weigend and R. Ahlrichs, Phys. Chem. Chem. Phys. 7, 3297 (2005).

Your calculation utilizes the basis: STO-3G
   H-Ne       : W. J. Hehre, R. F. Stewart and J. A. Pople, J. Chem. Phys. 2657 (1969).
   Na-Ar      : W. J. Hehre, R. Ditchfield, R. F. Stewart and J. A. Pople, J. Chem. Phys. 2769 (1970).
   K,Ca,Ga-Kr : W. J. Pietro, B. A. Levy, W. J. Hehre and R. F. Stewart, J. Am. Chem. Soc. 19, 2225 (1980).
   Sc-Zn,Y-Cd : W. J. Pietro and W. J. Hehre, J. Comp. Chem. 4, 241 (1983).

----- AuxJ basis set information -----
Your calculation utilizes the basis: def2-mTZVP/J
================================================================================
                                        WARNINGS
                       Please study these warnings very carefully!
================================================================================

WARNING: Old DensityContainer found on disk!
         Will remove this file - 
         If you want to keep old densities, please start your calculation with a different basename. 


WARNING: Geometry Optimization
  ===> : Switching off AutoStart
         For restart on a previous wavefunction, please use MOREAD

INFO   : the flag for use of the SHARK integral package has been found!

================================================================================
                                       INPUT FILE
================================================================================
NAME = /scratch/negishi/li1724/Test-CentralizedCode-4-5/DFT/CWMHSQPVYVHHDK-QJPJQTDYNZXKQF_0_1/CWMHSQPVYVHHDK-QJPJQTDYNZXKQF_0_1-COPT.in
|  1> ! B97-3c def2-SVP CPCM(DMSO) defgrid2 OPT Freq
|  2> 
|  3> %scf
|  4>   MaxIter 500
|  5> end
|  6> 
|  7> %pal
|  8>   nproc 32
|  9> end
| 10> 
| 11> %maxcore 7200
| 12> 
| 13> %geom
| 14>   Constraints
| 15>     {C 0 C}
| 16>     {C 42 C}
| 17>     {C 37 C}
| 18>     {C 21 C}
| 19>     {C 42 C}
| 20>   end
| 21> end
| 22> 
| 23> %base "CWMHSQPVYVHHDK-QJPJQTDYNZXKQF_0_1-COPT"
| 24> 
| 25> *xyz -1 1
| 26> Br   0.42484789   3.10479199  -0.68415796 newgto "def2-TZVP" end
| 27> C   -2.43193694  -1.12694361  -1.41103046 
| 28> C   -4.13803292  -2.16096808   0.02239949 
| 29> C    3.32187984  -2.27533223  -1.06224500 
| 30> C    0.90197797  -1.94022510  -0.84793866 
| 31> C   -3.14320631  -2.52156131   0.91085794 
| 32> C    0.73043437  -3.31512825  -1.09675430 
| 33> C   -1.41101579  -1.45567147  -0.44629850 
| 34> C    3.12301590  -3.64210505  -1.31522956 
| 35> C   -2.09972112  -0.49546009  -2.63410925 
| 36> C   -3.80333626  -1.46739211  -1.16730988 
| 37> C    2.24225855  -1.40432106  -0.82317506 
| 38> C   -1.78171560  -2.18831354   0.70333163 
| 39> C    1.82457376  -4.16217039  -1.33116036 
| 40> C   -6.00334545   1.00994688   0.90295662 
| 41> C   -3.53733731   1.73404369  -0.29184820 
| 42> C   -3.68005032   1.51868469   1.08826711 
| 43> C   -3.07009114  -0.16893004  -3.56397500 
| 44> C   -4.78280453  -1.10764267  -2.13203870 
| 45> C   -2.30012370   2.09538540  -0.82222039 
| 46> C   -2.56924785   1.70249043   1.93403636 
| 47> C   -1.20981186   2.23295302   0.02593595 newgto "def2-TZVP" end
| 48> C   -1.34145909   2.08775337   1.40882446 
| 49> C   -0.79704516  -3.96401121   2.15898779 
| 50> C   -0.78848664  -2.63218522   1.70686324 
| 51> C   -4.42861673  -0.46522566  -3.30333888 
| 52> C    3.48805335   0.65467768  -0.75237682 
| 53> C    4.03071030   0.71003081  -2.06000996 
| 54> C    4.37207770   0.96594843   4.01902888 
| 55> C    4.71659960   1.10236056   2.67209039 
| 56> C    3.03117513   1.03301775   4.40934404 
| 57> C    3.73525168   1.30757908   1.68436801 
| 58> C    4.13052662   1.42612716   0.26571352 
| 59> C    0.13295965  -4.41436817   3.09979557 
| 60> C    5.11896131   1.51642122  -2.37487022 
| 61> C    0.17333280  -1.75878543   2.24332494 
| 62> C    2.05046785   1.24895249   3.43668061 
| 63> C    2.40142400   1.37715800   2.10049700 newgto "def2-TZVP" end
| 64> C    5.23115951   2.23220530  -0.07677629 
| 65> C    5.72879921   2.29447721  -1.37820805 
| 66> C    1.09660642  -3.53842879   3.60825378 
| 67> C    1.10688129  -2.20619463   3.17797693 
| 68> Cu   0.58370398   0.76198999  -0.30004999 newgto "def2-TZVP" end
| 69> H   -1.05222799  -0.25692191  -2.81546668 newgto "STO-3G" end
| 70> H   -6.80129197   0.72334696   1.59525380 newgto "STO-3G" end
| 71> H   -5.17993459  -2.41265766   0.22224924 newgto "STO-3G" end
| 72> H    4.33497638  -1.87240183  -1.02840605 newgto "STO-3G" end
| 73> H   -0.28285385  -3.71752406  -1.12244215 newgto "STO-3G" end
| 74> H   -3.40941865  -3.05614088   1.82404814 newgto "STO-3G" end
| 75> H    3.98380936  -4.29039998  -1.48887298 newgto "STO-3G" end
| 76> H   -6.27071679   1.95630457   0.41166736 newgto "STO-3G" end
| 77> H   -1.52867814  -4.66035428   1.74744037 newgto "STO-3G" end
| 78> H   -4.37216855   1.59570354  -0.97334617 newgto "STO-3G" end
| 79> H   -2.19042318   2.25109411  -1.89165179 newgto "STO-3G" end
| 80> H   -2.68272757   1.55570775   3.00698727 newgto "STO-3G" end
| 81> H    1.65308088  -5.22198845  -1.52836757 newgto "STO-3G" end
| 82> H   -2.78989095   0.32061129  -4.49752815 newgto "STO-3G" end
| 83> H    3.54971431   0.11274871  -2.83537905 newgto "STO-3G" end
| 84> H   -5.87776885   0.22260012   0.14828833 newgto "STO-3G" end
| 85> H   -5.82733586  -1.35217602  -1.93187923 newgto "STO-3G" end
| 86> H   -0.49974665   2.27558657   2.07100788 newgto "STO-3G" end
| 87> H    5.15281614   0.79757164   4.76193833 newgto "STO-3G" end
| 88> H    5.76271947   1.02783137   2.37297326 newgto "STO-3G" end
| 89> H   -5.19410878  -0.19686678  -4.03286170 newgto "STO-3G" end
| 90> H    2.75343994   0.91995305   5.45792011 newgto "STO-3G" end
| 91> H    0.11163911  -5.45532758   3.42560707 newgto "STO-3G" end
| 92> H    0.19563784  -0.72166791   1.91219752 newgto "STO-3G" end
| 93> H    5.48664437   1.55229658  -3.40216510 newgto "STO-3G" end
| 94> H    1.00052944   1.31553703   3.72309094 newgto "STO-3G" end
| 95> H    1.63031414   1.58733870   1.37044143 newgto "STO-3G" end
| 96> H    5.70416980   2.82610842   0.70718078 newgto "STO-3G" end
| 97> H    6.57455704   2.94069578  -1.61415580 newgto "STO-3G" end
| 98> H    1.83142928  -3.88835210   4.33460792 newgto "STO-3G" end
| 99> H    1.84436217  -1.50643602   3.57314957 newgto "STO-3G" end
|100> N   -0.12122736  -1.04116418  -0.69301506 newgto "def2-TZVP" end
|101> N    2.35870933  -0.08110576  -0.47991193 newgto "def2-TZVP" end
|102> O   -4.83166657   1.15585985   1.69121401 
|103> *
|104> 
|105>                          ****END OF INPUT****
================================================================================

                       *****************************
                       * Geometry Optimization Run *
                       *****************************

Geometry optimization settings:
Update method            Update   .... BFGS
Choice of coordinates    CoordSys .... Z-matrix Internals
Initial Hessian          InHess   .... Almoef's Model

Convergence Tolerances:
Energy Change            TolE     ....  5.0000e-06 Eh
Max. Gradient            TolMAXG  ....  3.0000e-04 Eh/bohr
RMS Gradient             TolRMSG  ....  1.0000e-04 Eh/bohr
Max. Displacement        TolMAXD  ....  4.0000e-03 bohr
RMS Displacement         TolRMSD  ....  2.0000e-03 bohr
Strict Convergence                ....  False
------------------------------------------------------------------------------
                        ORCA OPTIMIZATION COORDINATE SETUP
------------------------------------------------------------------------------

The optimization will be done in new redundant internal coordinates
Making redundant internal coordinates   ...  (new redundants) done
Evaluating the initial hessian          ...  (Almloef) done
Evaluating the coordinates              ...  done
Calculating the B-matrix                .... done
Calculating the G-matrix                .... done
Diagonalizing the G-matrix              .... done
Imposing constraints:
 Iter   0:  RMS(Cart)=    0.0000000000 RMS(Int)=    0.0000000000
CONVERGED
Will constrain atom 0 coordinate 1 
Will constrain atom 0 coordinate 2 
Will constrain atom 0 coordinate 3 
Will constrain atom 21 coordinate 1 
Will constrain atom 21 coordinate 2 
Will constrain atom 21 coordinate 3 
Will constrain atom 37 coordinate 1 
Will constrain atom 37 coordinate 2 
Will constrain atom 37 coordinate 3 
Will constrain atom 42 coordinate 1 
Will constrain atom 42 coordinate 2 
Will constrain atom 42 coordinate 3 
Small eigenvalue found = 1.117e-03
Small eigenvalue found = 2.145e-03
Small eigenvalue found = 3.225e-03
Small eigenvalue found = 4.500e-03
Small eigenvalue found = 6.106e-03
Small eigenvalue found = 7.072e-03
Small eigenvalue found = 7.565e-03
Small eigenvalue found = 9.255e-03
Small eigenvalue found = 1.385e-02
Small eigenvalue found = 1.650e-02
Small eigenvalue found = 1.937e-02
Small eigenvalue found = 2.065e-02
Small eigenvalue found = 2.410e-02
The first mode is                       ....  332
The number of degrees of freedom        ....  231
Storing new coordinates                 .... done

    -----------------------------------------------------------------
                    Redundant Internal Coordinates


    -----------------------------------------------------------------
         Definition                    Initial Value    Approx d2E/dq
    -----------------------------------------------------------------
      1. B(C   5,C   2)                  1.3817         0.644165   
      2. B(C   6,C   4)                  1.4077         0.585405   
      3. B(C   7,C   1)                  1.4426         0.515043   
      4. B(C   8,C   3)                  1.4041         0.593165   
      5. B(C   9,C   1)                  1.4160         0.567878   
      6. B(C  10,C   2)                  1.4172         0.565367   
      7. B(C  10,C   1)                  1.4339         0.531759   
      8. B(C  11,C   4)                  1.4437         0.513009   
      9. B(C  11,C   3)                  1.4076         0.585633   
     10. B(C  12,C   5)                  1.4170         0.565880   
     11. B(C  12,C   7)                  1.4127         0.574724   
     12. B(C  13,C   6)                  1.4034         0.594757   
     13. B(C  13,C   8)                  1.3988         0.604895   
     14. B(C  16,C  15)                  1.4041         0.593282   
     15. B(C  17,C   9)                  1.3831         0.640900   
     16. B(C  18,C  10)                  1.4211         0.557373   
     17. B(C  19,C  15)                  1.3938         0.616231   
     18. B(C  20,C  16)                  1.4082         0.584415   
     19. B(C  21,Br  0)                  1.9840         0.236846   
     20. B(C  21,C  19)                  1.3882         0.628963   
     21. B(C  22,C  20)                  1.3899         0.625094   
     22. B(C  22,C  21)                  1.3967         0.609587   
     23. B(C  24,C  12)                  1.4801         0.448787   
     24. B(C  24,C  23)                  1.4065         0.588043   
     25. B(C  25,C  17)                  1.4147         0.570645   
     26. B(C  25,C  18)                  1.3821         0.643287   
     27. B(C  27,C  26)                  1.4168         0.566124   
     28. B(C  29,C  28)                  1.3970         0.608984   
     29. B(C  30,C  28)                  1.3982         0.606335   
     30. B(C  31,C  29)                  1.4074         0.586124   
     31. B(C  32,C  26)                  1.4298         0.539749   
     32. B(C  32,C  31)                  1.4775         0.453114   
     33. B(C  33,C  23)                  1.3974         0.607942   
     34. B(C  34,C  27)                  1.3906         0.623483   
     35. B(C  35,C  24)                  1.4056         0.589994   
     36. B(C  36,C  30)                  1.3980         0.606634   
     37. B(C  37,C  31)                  1.3990         0.604556   
     38. B(C  37,C  36)                  1.3874         0.630697   
     39. B(C  38,C  32)                  1.4066         0.587887   
     40. B(C  39,C  34)                  1.4038         0.593947   
     41. B(C  39,C  38)                  1.3947         0.614053   
     42. B(C  40,C  33)                  1.3980         0.606693   
     43. B(C  41,C  35)                  1.3947         0.614041   
     44. B(C  41,C  40)                  1.4000         0.602188   
     45. B(Cu 42,Br  0)                  2.3794         0.560853   
     46. B(Cu 42,C   4)                  2.7755         0.038938   
     47. B(Cu 42,C  11)                  2.7780         0.038581   
     48. B(Cu 42,C  21)                  2.3424         0.191169   
     49. B(H  43,C   9)                  1.0895         0.360748   
     50. B(H  44,C  14)                  1.0946         0.354075   
     51. B(H  45,C   2)                  1.0903         0.359647   
     52. B(H  46,C   3)                  1.0908         0.359032   
     53. B(H  47,C   6)                  1.0906         0.359351   
     54. B(H  48,C   5)                  1.0911         0.358611   
     55. B(H  49,C   8)                  1.0915         0.358102   
     56. B(H  50,C  14)                  1.0993         0.348014   
     57. B(H  51,C  23)                  1.0907         0.359220   
     58. B(H  52,C  15)                  1.0865         0.364736   
     59. B(H  53,C  19)                  1.0863         0.365080   
     60. B(H  54,C  20)                  1.0889         0.361593   
     61. B(H  55,C  13)                  1.0916         0.358035   
     62. B(H  56,C  17)                  1.0907         0.359140   
     63. B(H  57,C  27)                  1.0906         0.359373   
     64. B(H  58,C  14)                  1.0978         0.349902   
     65. B(H  59,C  18)                  1.0913         0.358402   
     66. B(H  59,H  58)                  2.6095         0.000260   
     67. B(H  60,C  22)                  1.0873         0.363673   
     68. B(H  61,C  28)                  1.0908         0.359060   
     69. B(H  62,C  29)                  1.0906         0.359317   
     70. B(H  63,C  25)                  1.0910         0.358830   
     71. B(H  64,C  30)                  1.0906         0.359293   
     72. B(H  65,C  33)                  1.0910         0.358826   
     73. B(H  66,C  35)                  1.0889         0.361526   
     74. B(H  67,C  34)                  1.0917         0.357856   
     75. B(H  68,C  36)                  1.0903         0.359654   
     76. B(H  69,C  37)                  1.0825         0.370184   
     77. B(H  69,Cu 42)                  2.1371         0.077802   
     78. B(H  70,C  38)                  1.0914         0.358316   
     79. B(H  71,C  39)                  1.0902         0.359811   
     80. B(H  72,C  40)                  1.0909         0.358949   
     81. B(H  73,C  41)                  1.0907         0.359130   
     82. B(H  73,C  30)                  2.9252         0.000425   
     83. B(N  74,C   4)                  1.3709         0.600357   
     84. B(N  74,C   7)                  1.3770         0.586884   
     85. B(N  74,Cu 42)                  1.9755         0.658910   
     86. B(N  75,C  11)                  1.3720         0.597927   
     87. B(N  75,C  26)                  1.3751         0.590977   
     88. B(N  75,Cu 42)                  1.9733         0.664395   
     89. B(O  76,C  14)                  1.4197         0.501804   
     90. B(O  76,C  16)                  1.3496         0.649141   
     91. A(C  21,Br  0,Cu 42)           64.1869         0.449783   
     92. A(C   7,C   1,C   9)          120.8788         0.413369   
     93. A(C   9,C   1,C  10)          118.4955         0.415722   
     94. A(C   7,C   1,C  10)          120.6030         0.408580   
     95. A(C   5,C   2,C  10)          119.8336         0.429874   
     96. A(C   5,C   2,H  45)          120.6582         0.355127   
     97. A(C  10,C   2,H  45)          119.5058         0.347382   
     98. A(C   8,C   3,C  11)          121.6204         0.426246   
     99. A(C   8,C   3,H  46)          119.7807         0.350104   
    100. A(C  11,C   3,H  46)          118.5876         0.349349   
    101. A(C  11,C   4,N  74)          116.5868         0.414484   
    102. A(C   6,C   4,C  11)          118.6019         0.415316   
    103. A(C  11,C   4,Cu 42)           75.0287         0.293068   
    104. A(C   6,C   4,N  74)          124.7199         0.424355   
    105. A(Cu 42,C   4,N  74)           41.7190         0.298721   
    106. A(C   6,C   4,Cu 42)          166.3629         0.299257   
    107. A(C   2,C   5,C  12)          122.4298         0.429944   
    108. A(C  12,C   5,H  48)          118.1790         0.347267   
    109. A(C   2,C   5,H  48)          119.3640         0.354953   
    110. A(C   4,C   6,C  13)          121.6012         0.426421   
    111. A(C   4,C   6,H  47)          118.5393         0.349379   
    112. A(C  13,C   6,H  47)          119.8511         0.350315   
    113. A(C  12,C   7,N  74)          123.2075         0.421249   
    114. A(C   1,C   7,N  74)          118.3237         0.413106   
    115. A(C   1,C   7,C  12)          118.4687         0.414250   
    116. A(C   3,C   8,H  49)          119.6767         0.349950   
    117. A(C  13,C   8,H  49)          120.6241         0.351110   
    118. A(C   3,C   8,C  13)          119.6969         0.428726   
    119. A(C  17,C   9,H  43)          120.7268         0.355005   
    120. A(C   1,C   9,H  43)          117.8388         0.347821   
    121. A(C   1,C   9,C  17)          121.4261         0.429823   
    122. A(C   1,C  10,C   2)          118.9966         0.415395   
    123. A(C   1,C  10,C  18)          118.9279         0.414345   
    124. A(C   2,C  10,C  18)          122.0736         0.418889   
    125. A(C   4,C  11,Cu 42)           74.8366         0.292643   
    126. A(Cu 42,C  11,N  75)           41.5363         0.298092   
    127. A(C   3,C  11,C   4)          118.6493         0.415345   
    128. A(C   3,C  11,Cu 42)          166.5130         0.298838   
    129. A(C   3,C  11,N  75)          125.0428         0.424077   
    130. A(C   4,C  11,N  75)          116.1750         0.414185   
    131. A(C   5,C  12,C  24)          118.3570         0.403165   
    132. A(C   7,C  12,C  24)          122.0861         0.404269   
    133. A(C   5,C  12,C   7)          119.5560         0.421254   
    134. A(C   8,C  13,H  55)          120.5886         0.351098   
    135. A(C   6,C  13,H  55)          119.5837         0.350098   
    136. A(C   6,C  13,C   8)          119.8273         0.428932   
    137. A(H  58,C  14,O  76)          111.1611         0.336885   
    138. A(H  44,C  14,H  50)          109.3149         0.288522   
    139. A(H  44,C  14,O  76)          106.1042         0.337551   
    140. A(H  44,C  14,H  58)          109.2918         0.288767   
    141. A(H  50,C  14,H  58)          109.7561         0.287988   
    142. A(H  50,C  14,O  76)          111.1246         0.336582   
    143. A(C  19,C  15,H  52)          118.4494         0.353309   
    144. A(C  16,C  15,C  19)          120.2668         0.430172   
    145. A(C  16,C  15,H  52)          121.2583         0.351048   
    146. A(C  20,C  16,O  76)          116.0952         0.430207   
    147. A(C  15,C  16,O  76)          124.5482         0.431372   
    148. A(C  15,C  16,C  20)          119.3509         0.426103   
    149. A(C   9,C  17,H  56)          120.0770         0.354736   
    150. A(C  25,C  17,H  56)          119.8934         0.347844   
    151. A(C   9,C  17,C  25)          120.0293         0.430199   
    152. A(C  25,C  18,H  59)          120.3246         0.354836   
    153. A(C  10,C  18,C  25)          121.0897         0.428672   
    154. A(C  10,C  18,H  59)          118.5855         0.346349   
    155. A(C  15,C  19,C  21)          119.3666         0.434711   
    156. A(C  15,C  19,H  53)          120.0958         0.353366   
    157. A(C  21,C  19,H  53)          120.5300         0.354592   
    158. A(C  16,C  20,H  54)          119.4735         0.349646   
    159. A(C  22,C  20,H  54)          120.1185         0.353646   
    160. A(C  16,C  20,C  22)          120.4009         0.430111   
    161. A(C  19,C  21,Cu 42)          117.0084         0.395348   
    162. A(Br  0,C  21,C  19)          118.1631         0.391089   
    163. A(Br  0,C  21,C  22)          118.5352         0.388957   
    164. A(C  19,C  21,C  22)          121.3726         0.433864   
    165. A(C  22,C  21,Cu 42)           98.3186         0.393186   
    166. A(Br  0,C  21,Cu 42)           66.1272         0.355457   
    167. A(C  21,C  22,H  60)          120.8011         0.352487   
    168. A(C  20,C  22,H  60)          120.1056         0.353990   
    169. A(C  20,C  22,C  21)          119.0929         0.433383   
    170. A(C  24,C  23,C  33)          121.1664         0.428445   
    171. A(C  24,C  23,H  51)          119.1662         0.349622   
    172. A(C  33,C  23,H  51)          119.6505         0.351593   
    173. A(C  12,C  24,C  35)          122.1153         0.406146   
    174. A(C  23,C  24,C  35)          118.0251         0.426151   
    175. A(C  12,C  24,C  23)          119.8577         0.405908   
    176. A(C  18,C  25,H  63)          120.0822         0.354908   
    177. A(C  17,C  25,H  63)          119.9403         0.347793   
    178. A(C  17,C  25,C  18)          119.9735         0.430486   
    179. A(C  27,C  26,C  32)          117.6440         0.416598   
    180. A(C  27,C  26,N  75)          121.2189         0.420639   
    181. A(C  32,C  26,N  75)          121.1060         0.417077   
    182. A(C  26,C  27,C  34)          122.0976         0.427468   
    183. A(C  26,C  27,H  57)          117.7660         0.347416   
    184. A(C  34,C  27,H  57)          120.1183         0.353123   
    185. A(C  29,C  28,C  30)          120.0661         0.430939   
    186. A(C  29,C  28,H  61)          119.6852         0.351668   
    187. A(C  30,C  28,H  61)          120.2462         0.351409   
    188. A(C  28,C  29,C  31)          121.2616         0.428326   
    189. A(C  28,C  29,H  62)          119.6259         0.351711   
    190. A(C  31,C  29,H  62)          119.0994         0.349446   
    191. A(C  28,C  30,C  36)          119.0746         0.430640   
    192. A(C  28,C  30,H  64)          120.5081         0.351448   
    193. A(C  36,C  30,H  64)          120.4173         0.351477   
    194. A(C  29,C  31,C  32)          119.9358         0.406363   
    195. A(C  29,C  31,C  37)          117.6009         0.427766   
    196. A(C  32,C  31,C  37)          122.4597         0.408594   
    197. A(C  26,C  32,C  31)          121.3451         0.400497   
    198. A(C  26,C  32,C  38)          119.1714         0.419407   
    199. A(C  31,C  32,C  38)          119.2834         0.406578   
    200. A(C  23,C  33,C  40)          120.1103         0.430853   
    201. A(C  23,C  33,H  65)          119.7062         0.351528   
    202. A(C  40,C  33,H  65)          120.1787         0.351406   
    203. A(C  27,C  34,C  39)          120.0418         0.431163   
    204. A(C  27,C  34,H  67)          119.7158         0.352870   
    205. A(C  39,C  34,H  67)          120.2364         0.349987   
    206. A(C  24,C  35,C  41)          120.9607         0.429468   
    207. A(C  24,C  35,H  66)          119.3253         0.350196   
    208. A(C  41,C  35,H  66)          119.7088         0.352568   
    209. A(C  30,C  36,C  37)          120.4551         0.433700   
    210. A(C  30,C  36,H  68)          120.1441         0.351537   
    211. A(C  37,C  36,H  68)          119.4006         0.353858   
    212. A(C  31,C  37,C  36)          121.5367         0.433433   
    213. A(C  31,C  37,H  69)          119.2244         0.353052   
    214. A(C  36,C  37,H  69)          119.1608         0.355594   
    215. A(C  32,C  38,C  39)          122.1398         0.429194   
    216. A(C  32,C  38,H  70)          118.4310         0.349458   
    217. A(C  39,C  38,H  70)          119.4291         0.352038   
    218. A(C  38,C  39,H  71)          120.3451         0.352286   
    219. A(C  34,C  39,C  38)          118.8647         0.429985   
    220. A(C  34,C  39,H  71)          120.7897         0.350310   
    221. A(C  33,C  40,H  72)          120.3650         0.351426   
    222. A(C  41,C  40,H  72)          120.3269         0.350983   
    223. A(C  33,C  40,C  41)          119.3079         0.430118   
    224. A(C  35,C  41,H  73)          119.3112         0.352172   
    225. A(C  40,C  41,H  73)          120.2713         0.351013   
    226. A(C  35,C  41,C  40)          120.4173         0.431048   
    227. A(Br  0,Cu 42,C  21)           49.6859         0.454868   
    228. A(C   4,Cu 42,C  21)          136.6081         0.277494   
    229. A(Br  0,Cu 42,N  74)          147.4343         0.570306   
    230. A(C   4,Cu 42,N  74)           27.5026         0.336966   
    231. A(C  11,Cu 42,N  74)           57.5759         0.336450   
    232. A(H  69,Cu 42,N  74)          133.0585         0.352053   
    233. A(Br  0,Cu 42,N  75)          117.7768         0.571210   
    234. A(C   4,Cu 42,N  75)           57.5123         0.337432   
    235. A(C  11,Cu 42,N  75)           27.4537         0.336915   
    236. A(C  21,Cu 42,N  75)          165.8703         0.445137   
    237. A(H  69,Cu 42,N  75)           78.2130         0.352547   
    238. A(N  74,Cu 42,N  75)           85.0015         0.557504   
    239. A(Br  0,Cu 42,C   4)          159.1332         0.344221   
    240. A(C  21,Cu 42,N  74)          109.1261         0.444469   
    241. A(Br  0,Cu 42,H  69)           77.2098         0.359748   
    242. A(C   4,Cu 42,H  69)          118.3038         0.228488   
    243. A(Br  0,Cu 42,C  11)          141.0118         0.343689   
    244. A(C  11,Cu 42,C  21)          166.6667         0.277101   
    245. A(C  11,Cu 42,H  69)           98.9731         0.228198   
    246. A(C  21,Cu 42,H  69)           91.3564         0.288961   
    247. A(C   4,Cu 42,C  11)           30.1346         0.220215   
    248. A(C  37,H  69,Cu 42)          143.2312         0.262905   
    249. A(C   4,N  74,C   7)          121.4621         0.421786   
    250. A(C   4,N  74,Cu 42)          110.7783         0.484501   
    251. A(C   7,N  74,Cu 42)          124.9829         0.482474   
    252. A(C  11,N  75,C  26)          122.4239         0.422004   
    253. A(C  11,N  75,Cu 42)          111.0100         0.484880   
    254. A(C  26,N  75,Cu 42)          121.8831         0.483834   
    255. A(C  14,O  76,C  16)          118.9351         0.415926   
    256. D(C  12,C   5,C   2,C  10)      1.9856         0.028856   
    257. D(C  12,C   5,C   2,H  45)   -178.5777         0.028856   
    258. D(H  48,C   5,C   2,C  10)   -179.9458         0.028856   
    259. D(H  48,C   5,C   2,H  45)     -0.5090         0.028856   
    260. D(H  47,C   6,C   4,C  11)   -179.5607         0.025592   
    261. D(H  47,C   6,C   4,N  74)     -3.1641         0.025592   
    262. D(C  13,C   6,C   4,N  74)    175.7818         0.025592   
    263. D(H  47,C   6,C   4,Cu 42)      2.3039         0.025592   
    264. D(C  13,C   6,C   4,Cu 42)   -178.7502         0.025592   
    265. D(C  13,C   6,C   4,C  11)     -0.6149         0.025592   
    266. D(C  12,C   7,C   1,C   9)   -174.5673         0.018084   
    267. D(C  12,C   7,C   1,C  10)      3.6744         0.018084   
    268. D(N  74,C   7,C   1,C   9)      5.3256         0.018084   
    269. D(N  74,C   7,C   1,C  10)   -176.4327         0.018084   
    270. D(C  13,C   8,C   3,C  11)     -0.0657         0.024226   
    271. D(C  13,C   8,C   3,H  46)    178.6979         0.024226   
    272. D(H  49,C   8,C   3,C  11)   -179.5271         0.024226   
    273. D(H  49,C   8,C   3,H  46)     -0.7635         0.024226   
    274. D(H  43,C   9,C   1,C  10)   -178.9765         0.022115   
    275. D(C  17,C   9,C   1,C  10)      2.0644         0.022115   
    276. D(C  17,C   9,C   1,C   7)   -179.6576         0.022115   
    277. D(H  43,C   9,C   1,C   7)     -0.6985         0.022115   
    278. D(C   2,C  10,C   1,C   9)    176.7968         0.019304   
    279. D(C   1,C  10,C   2,C   5)     -1.3410         0.021912   
    280. D(C   1,C  10,C   2,H  45)    179.2157         0.021912   
    281. D(C   2,C  10,C   1,C   7)     -1.4861         0.019304   
    282. D(C  18,C  10,C   1,C   9)     -2.7125         0.019304   
    283. D(C  18,C  10,C   2,H  45)     -1.2911         0.021912   
    284. D(C  18,C  10,C   1,C   7)    179.0046         0.019304   
    285. D(C  18,C  10,C   2,C   5)    178.1522         0.021912   
    286. D(C   4,C  11,C   3,C   8)     -0.3114         0.025613   
    287. D(C   4,C  11,C   3,H  46)   -179.0894         0.025613   
    288. D(Cu 42,C  11,C   3,C   8)   -179.5476         0.025613   
    289. D(Cu 42,C  11,C   3,H  46)      1.6745         0.025613   
    290. D(N  75,C  11,C   3,H  46)     -3.4519         0.025613   
    291. D(N  75,C  11,C   3,C   8)    175.3260         0.025613   
    292. D(C   3,C  11,C   4,Cu 42)   -179.8154         0.020868   
    293. D(C   3,C  11,C   4,C   6)      0.6396         0.020868   
    294. D(C   3,C  11,C   4,N  74)   -176.0488         0.020868   
    295. D(Cu 42,C  11,C   4,N  74)      3.7666         0.020868   
    296. D(Cu 42,C  11,C   4,C   6)   -179.5450         0.020868   
    297. D(N  75,C  11,C   4,Cu 42)      4.1638         0.020868   
    298. D(N  75,C  11,C   4,C   6)   -175.3812         0.020868   
    299. D(N  75,C  11,C   4,N  74)      7.9304         0.020868   
    300. D(C  24,C  12,C   5,H  48)      2.5200         0.021953   
    301. D(C  24,C  12,C   5,C   2)   -179.3895         0.021953   
    302. D(C   7,C  12,C   5,H  48)   -177.8103         0.021953   
    303. D(C   7,C  12,C   5,C   2)      0.2802         0.021953   
    304. D(C  24,C  12,C   7,N  74)     -3.2931         0.022675   
    305. D(C  24,C  12,C   7,C   1)    176.5942         0.022675   
    306. D(C   5,C  12,C   7,N  74)    177.0499         0.022675   
    307. D(C   5,C  12,C   7,C   1)     -3.0628         0.022675   
    308. D(H  55,C  13,C   8,C   3)    179.8701         0.025247   
    309. D(H  55,C  13,C   6,H  47)     -0.5904         0.024363   
    310. D(H  55,C  13,C   6,C   4)   -179.5227         0.024363   
    311. D(C   6,C  13,C   8,C   3)      0.1086         0.025247   
    312. D(C   8,C  13,C   6,H  47)    179.1736         0.024363   
    313. D(H  55,C  13,C   8,H  49)     -0.6737         0.025247   
    314. D(C   8,C  13,C   6,C   4)      0.2413         0.024363   
    315. D(C   6,C  13,C   8,H  49)    179.5648         0.025247   
    316. D(C  20,C  16,C  15,C  19)      1.5081         0.024236   
    317. D(C  20,C  16,C  15,H  52)    179.6386         0.024236   
    318. D(O  76,C  16,C  15,C  19)   -179.3981         0.024236   
    319. D(O  76,C  16,C  15,H  52)     -1.2676         0.024236   
    320. D(C  25,C  17,C   9,H  43)   -178.9304         0.028544   
    321. D(C  25,C  17,C   9,C   1)     -0.0011         0.028544   
    322. D(H  56,C  17,C   9,H  43)      0.8426         0.028544   
    323. D(H  56,C  17,C   9,C   1)    179.7719         0.028544   
    324. D(C  25,C  18,C  10,C   1)      1.3692         0.021273   
    325. D(C  25,C  18,C  10,C   2)   -178.1243         0.021273   
    326. D(H  59,C  18,C  10,C   1)   -178.8238         0.021273   
    327. D(H  59,C  18,C  10,C   2)      1.6827         0.021273   
    328. D(C  21,C  19,C  15,C  16)      0.3492         0.026258   
    329. D(C  21,C  19,C  15,H  52)   -177.8332         0.026258   
    330. D(H  53,C  19,C  15,C  16)    179.3548         0.026258   
    331. D(H  53,C  19,C  15,H  52)      1.1724         0.026258   
    332. D(C  22,C  20,C  16,C  15)     -0.2727         0.023482   
    333. D(C  22,C  20,C  16,O  76)   -179.4416         0.023482   
    334. D(H  54,C  20,C  16,C  15)    178.7639         0.023482   
    335. D(H  54,C  20,C  16,O  76)     -0.4050         0.023482   
    336. D(C  19,C  21,Br  0,Cu 42)   -109.0480         0.002183   
    337. D(Br  0,C  21,C  19,C  15)   -167.4699         0.029804   
    338. D(Cu 42,C  21,C  19,C  15)    116.5563         0.029804   
    339. D(Br  0,C  21,C  19,H  53)     13.5288         0.029804   
    340. D(C  22,C  21,Br  0,Cu 42)     86.5282         0.002183   
    341. D(C  22,C  21,C  19,C  15)     -3.5092         0.029804   
    342. D(C  22,C  21,C  19,H  53)    177.4896         0.029804   
    343. D(Cu 42,C  21,C  19,H  53)    -62.4449         0.029804   
    344. D(C  21,C  22,C  20,H  54)    178.1921         0.027065   
    345. D(H  60,C  22,C  20,C  16)    177.0017         0.027065   
    346. D(C  20,C  22,C  21,Br  0)    168.6244         0.027881   
    347. D(C  21,C  22,C  20,C  16)     -2.7776         0.027065   
    348. D(H  60,C  22,C  20,H  54)     -2.0286         0.027065   
    349. D(C  20,C  22,C  21,Cu 42)   -124.0851         0.027881   
    350. D(H  60,C  22,C  21,Cu 42)     56.1371         0.027881   
    351. D(C  20,C  22,C  21,C  19)      4.7215         0.027881   
    352. D(H  60,C  22,C  21,Br  0)    -11.1533         0.027881   
    353. D(H  60,C  22,C  21,C  19)   -175.0563         0.027881   
    354. D(C  23,C  24,C  12,C   5)     47.8578         0.013731   
    355. D(C  23,C  24,C  12,C   7)   -131.8031         0.013731   
    356. D(C  35,C  24,C  12,C   5)   -131.6381         0.013731   
    357. D(C  35,C  24,C  12,C   7)     48.7010         0.013731   
    358. D(C  12,C  24,C  23,C  33)    179.6187         0.023789   
    359. D(C  12,C  24,C  23,H  51)      1.1205         0.023789   
    360. D(C  35,C  24,C  23,C  33)     -0.8649         0.023789   
    361. D(C  35,C  24,C  23,H  51)   -179.3632         0.023789   
    362. D(H  63,C  25,C  17,H  56)     -0.4627         0.022340   
    363. D(H  63,C  25,C  18,H  59)      0.1762         0.028771   
    364. D(C  17,C  25,C  18,H  59)   -179.0934         0.028771   
    365. D(H  63,C  25,C  18,C  10)    179.9799         0.028771   
    366. D(C  17,C  25,C  18,C  10)      0.7103         0.028771   
    367. D(H  63,C  25,C  17,C   9)    179.3107         0.022340   
    368. D(C  18,C  25,C  17,C   9)     -1.4187         0.022340   
    369. D(C  18,C  25,C  17,H  56)    178.8079         0.022340   
    370. D(H  57,C  27,C  26,C  32)    179.2579         0.021973   
    371. D(C  34,C  27,C  26,C  32)     -2.2897         0.021973   
    372. D(C  34,C  27,C  26,N  75)    175.7043         0.021973   
    373. D(H  57,C  27,C  26,N  75)     -2.7481         0.021973   
    374. D(C  31,C  29,C  28,C  30)     -0.0379         0.025608   
    375. D(C  31,C  29,C  28,H  61)    179.3787         0.025608   
    376. D(H  62,C  29,C  28,C  30)   -178.7125         0.025608   
    377. D(H  62,C  29,C  28,H  61)      0.7041         0.025608   
    378. D(C  36,C  30,C  28,C  29)     -0.5482         0.027566   
    379. D(C  36,C  30,C  28,H  61)   -179.9616         0.027566   
    380. D(H  64,C  30,C  28,C  29)    179.5364         0.027566   
    381. D(H  64,C  30,C  28,H  61)      0.1231         0.027566   
    382. D(C  32,C  31,C  29,C  28)   -179.0102         0.023626   
    383. D(C  32,C  31,C  29,H  62)     -0.3287         0.023626   
    384. D(C  37,C  31,C  29,C  28)      0.3245         0.023626   
    385. D(C  37,C  31,C  29,H  62)    179.0059         0.023626   
    386. D(C  38,C  32,C  26,C  27)      2.1171         0.019906   
    387. D(C  31,C  32,C  26,C  27)   -172.7055         0.019906   
    388. D(C  31,C  32,C  26,N  75)      9.2981         0.019906   
    389. D(C  38,C  32,C  26,N  75)   -175.8793         0.019906   
    390. D(C  26,C  32,C  31,C  29)    129.9022         0.013992   
    391. D(C  38,C  32,C  31,C  29)    -44.9147         0.013992   
    392. D(C  38,C  32,C  31,C  37)    135.7841         0.013992   
    393. D(C  26,C  32,C  31,C  37)    -49.3989         0.013992   
    394. D(C  40,C  33,C  23,C  24)     -0.1161         0.025516   
    395. D(C  40,C  33,C  23,H  51)    178.3750         0.025516   
    396. D(H  65,C  33,C  23,C  24)   -179.3204         0.025516   
    397. D(H  65,C  33,C  23,H  51)     -0.8294         0.025516   
    398. D(C  39,C  34,C  27,C  26)      0.9678         0.026918   
    399. D(C  39,C  34,C  27,H  57)    179.3846         0.026918   
    400. D(H  67,C  34,C  27,C  26)   -178.1431         0.026918   
    401. D(H  67,C  34,C  27,H  57)      0.2737         0.026918   
    402. D(C  41,C  35,C  24,C  12)   -179.3429         0.023955   
    403. D(C  41,C  35,C  24,C  23)      1.1523         0.023955   
    404. D(H  66,C  35,C  24,C  12)     -0.1726         0.023955   
    405. D(H  66,C  35,C  24,C  23)   -179.6774         0.023955   
    406. D(C  37,C  36,C  30,C  28)      0.8480         0.027595   
    407. D(C  37,C  36,C  30,H  64)   -179.2366         0.027595   
    408. D(H  68,C  36,C  30,C  28)   -179.3087         0.027595   
    409. D(H  68,C  36,C  30,H  64)      0.6068         0.027595   
    410. D(C  36,C  37,C  31,C  29)     -0.0233         0.025217   
    411. D(C  36,C  37,C  31,C  32)    179.2934         0.025217   
    412. D(H  69,C  37,C  31,C  29)    176.7342         0.025217   
    413. D(H  69,C  37,C  31,C  32)     -3.9492         0.025217   
    414. D(C  31,C  37,C  36,C  30)     -0.5671         0.027584   
    415. D(C  31,C  37,C  36,H  68)    179.5884         0.027584   
    416. D(H  69,C  37,C  36,C  30)   -177.3266         0.027584   
    417. D(H  69,C  37,C  36,H  68)      2.8289         0.027584   
    418. D(C  39,C  38,C  32,C  26)     -0.7007         0.023775   
    419. D(C  39,C  38,C  32,C  31)    174.2300         0.023775   
    420. D(H  70,C  38,C  32,C  26)    179.2053         0.023775   
    421. D(H  70,C  38,C  32,C  31)     -5.8640         0.023775   
    422. D(C  38,C  39,C  34,C  27)      0.5436         0.024293   
    423. D(C  38,C  39,C  34,H  67)    179.6499         0.024293   
    424. D(H  71,C  39,C  34,C  27)   -179.2105         0.024293   
    425. D(H  71,C  39,C  34,H  67)     -0.1042         0.024293   
    426. D(C  34,C  39,C  38,C  32)     -0.6633         0.026062   
    427. D(C  34,C  39,C  38,H  70)    179.4316         0.026062   
    428. D(H  71,C  39,C  38,C  32)    179.0919         0.026062   
    429. D(H  71,C  39,C  38,H  70)     -0.8132         0.026062   
    430. D(C  41,C  40,C  33,C  23)      0.8268         0.025405   
    431. D(C  41,C  40,C  33,H  65)   -179.9727         0.025405   
    432. D(H  72,C  40,C  33,C  23)   -179.3277         0.025405   
    433. D(H  72,C  40,C  33,H  65)     -0.1271         0.025405   
    434. D(C  40,C  41,C  35,C  24)     -0.4633         0.026060   
    435. D(C  40,C  41,C  35,H  66)   -179.6304         0.026060   
    436. D(H  73,C  41,C  35,C  24)    179.7076         0.026060   
    437. D(H  73,C  41,C  35,H  66)      0.5405         0.026060   
    438. D(C  35,C  41,C  40,C  33)     -0.5422         0.025009   
    439. D(C  35,C  41,C  40,H  72)    179.6122         0.025009   
    440. D(H  73,C  41,C  40,C  33)    179.2853         0.025009   
    441. D(H  73,C  41,C  40,H  72)     -0.5604         0.025009   
    442. D(C   4,Cu 42,Br  0,C  21)    116.7220         0.001961   
    443. D(N  75,Cu 42,C  21,C  19)    140.6104         0.001700   
    444. D(H  69,Cu 42,Br  0,C  21)   -102.9707         0.001961   
    445. D(N  74,Cu 42,Br  0,C  21)     57.9816         0.001961   
    446. D(N  74,Cu 42,C  21,Br  0)   -151.1153         0.001700   
    447. D(Br  0,Cu 42,C   4,C   6)   -101.6283         0.001510   
    448. D(Br  0,Cu 42,C   4,C  11)     80.0662         0.001510   
    449. D(C  11,Cu 42,C  21,C  22)     95.2483         0.001700   
    450. D(C  11,Cu 42,C   4,C   6)    178.3055         0.001510   
    451. D(C  11,Cu 42,C   4,N  74)   -174.9355         0.001510   
    452. D(C  21,Cu 42,C   4,C   6)     -4.1063         0.001510   
    453. D(C  21,Cu 42,C   4,C  11)    177.5883         0.001510   
    454. D(C  21,Cu 42,C   4,N  74)      2.6527         0.001510   
    455. D(H  69,Cu 42,C   4,C   6)    123.3950         0.001510   
    456. D(N  75,Cu 42,C  11,C   4)    174.3605         0.001510   
    457. D(H  69,Cu 42,C   4,N  74)    130.1541         0.001510   
    458. D(N  74,Cu 42,C   4,C   6)     -6.7590         0.001510   
    459. D(N  74,Cu 42,C  11,C   3)    176.5373         0.001510   
    460. D(N  75,Cu 42,C   4,C   6)    175.2266         0.001510   
    461. D(N  75,Cu 42,C   4,C  11)     -3.0789         0.001510   
    462. D(C  21,Cu 42,C  11,N  75)    178.4384         0.001510   
    463. D(Br  0,Cu 42,C  11,C   3)     33.1994         0.001510   
    464. D(Br  0,Cu 42,C  11,C   4)   -146.1061         0.001510   
    465. D(Br  0,Cu 42,C  11,N  75)     39.5334         0.001510   
    466. D(C   4,Cu 42,C  11,C   3)    179.3055         0.001510   
    467. D(C   4,Cu 42,C  11,N  75)   -174.3605         0.001510   
    468. D(C  21,Cu 42,C  11,C   3)    172.1043         0.001510   
    469. D(N  75,Cu 42,C   4,N  74)   -178.0144         0.001510   
    470. D(C  21,Cu 42,C  11,C   4)     -7.2011         0.001510   
    471. D(H  69,Cu 42,C  11,C   3)    -47.5268         0.001510   
    472. D(H  69,Cu 42,C  11,C   4)    133.1677         0.001510   
    473. D(N  74,Cu 42,C   4,C  11)    174.9355         0.001510   
    474. D(H  69,Cu 42,C  11,N  75)    -41.1928         0.001510   
    475. D(N  74,Cu 42,C  11,C   4)     -2.7681         0.001510   
    476. D(N  74,Cu 42,C  11,N  75)   -177.1286         0.001510   
    477. D(H  69,Cu 42,C   4,C  11)    -54.9104         0.001510   
    478. D(N  75,Cu 42,C  11,C   3)     -6.3340         0.001510   
    479. D(Br  0,Cu 42,C  21,C  19)    110.7162         0.001700   
    480. D(Br  0,Cu 42,C  21,C  22)   -117.5961         0.001700   
    481. D(C   4,Cu 42,C  21,Br  0)   -152.4116         0.001700   
    482. D(C   4,Cu 42,C  21,C  19)    -41.6954         0.001700   
    483. D(C   4,Cu 42,C  21,C  22)     89.9924         0.001700   
    484. D(C  11,Cu 42,C  21,Br  0)   -147.1556         0.001700   
    485. D(Br  0,Cu 42,C   4,N  74)    -94.8693         0.001510   
    486. D(C  11,Cu 42,C  21,C  19)    -36.4394         0.001700   
    487. D(H  69,Cu 42,C  21,Br  0)     71.9103         0.001700   
    488. D(H  69,Cu 42,C  21,C  19)   -177.3735         0.001700   
    489. D(N  75,Cu 42,Br  0,C  21)   -172.0960         0.001961   
    490. D(H  69,Cu 42,C  21,C  22)    -45.6858         0.001700   
    491. D(N  74,Cu 42,C  21,C  19)    -40.3991         0.001700   
    492. D(N  74,Cu 42,C  21,C  22)     91.2886         0.001700   
    493. D(C  11,Cu 42,Br  0,C  21)    168.5333         0.001961   
    494. D(N  75,Cu 42,C  21,Br  0)     29.8942         0.001700   
    495. D(N  75,Cu 42,C  21,C  22)    -87.7019         0.001700   
    496. D(Cu 42,H  69,C  37,C  31)     70.3247         0.117257   
    497. D(Cu 42,H  69,C  37,C  36)   -112.8400         0.117257   
    498. D(C  37,H  69,Cu 42,Br  0)   -154.0660         0.001675   
    499. D(C  37,H  69,Cu 42,C   4)     10.9599         0.001675   
    500. D(C  37,H  69,Cu 42,C  11)    -13.6149         0.001675   
    501. D(C  37,H  69,Cu 42,C  21)    157.9240         0.001675   
    502. D(C  37,H  69,Cu 42,N  74)     39.8454         0.001675   
    503. D(C  37,H  69,Cu 42,N  75)    -31.6846         0.001675   
    504. D(C   7,N  74,C   4,C   6)     16.0616         0.031575   
    505. D(C   7,N  74,C   4,C  11)   -167.4760         0.031575   
    506. D(C   7,N  74,C   4,Cu 42)   -162.0037         0.031575   
    507. D(Cu 42,N  74,C   4,C   6)    178.0653         0.031575   
    508. D(Cu 42,N  74,C   4,C  11)     -5.4723         0.031575   
    509. D(C   4,N  74,C   7,C   1)   -118.1690         0.027669   
    510. D(C   4,N  74,C   7,C  12)     61.7185         0.027669   
    511. D(Cu 42,N  74,C   7,C   1)     82.4749         0.027669   
    512. D(C   7,N  74,Cu 42,H  69)     94.1644         0.003928   
    513. D(C   4,N  74,Cu 42,Br  0)    138.7489         0.003928   
    514. D(C   4,N  74,Cu 42,C  11)      3.0096         0.003928   
    515. D(C   4,N  74,Cu 42,C  21)   -178.0715         0.003928   
    516. D(C   4,N  74,Cu 42,H  69)    -67.0730         0.003928   
    517. D(C   4,N  74,Cu 42,N  75)      1.6812         0.003928   
    518. D(C   7,N  74,Cu 42,Br  0)    -60.0137         0.003928   
    519. D(C   7,N  74,Cu 42,C   4)    161.2374         0.003928   
    520. D(C   7,N  74,Cu 42,C  11)    164.2470         0.003928   
    521. D(Cu 42,N  74,C   7,C  12)    -97.6376         0.027669   
    522. D(C   7,N  74,Cu 42,C  21)    -16.8341         0.003928   
    523. D(C   7,N  74,Cu 42,N  75)    162.9185         0.003928   
    524. D(C  26,N  75,C  11,C   3)     22.0980         0.031301   
    525. D(C  26,N  75,Cu 42,H  69)    -65.3965         0.003969   
    526. D(C  26,N  75,C  11,Cu 42)   -156.1010         0.031301   
    527. D(Cu 42,N  75,C  11,C   3)    178.1990         0.031301   
    528. D(C  26,N  75,Cu 42,Br  0)      3.1641         0.003969   
    529. D(C  11,N  75,C  26,C  27)     52.5817         0.028082   
    530. D(C  11,N  75,C  26,C  32)   -129.4938         0.028082   
    531. D(Cu 42,N  75,C  26,C  27)   -100.9701         0.028082   
    532. D(Cu 42,N  75,C  26,C  32)     76.9544         0.028082   
    533. D(C  11,N  75,Cu 42,Br  0)   -153.0871         0.003969   
    534. D(C  11,N  75,Cu 42,C   4)      3.3530         0.003969   
    535. D(C  11,N  75,Cu 42,C  21)   -178.5248         0.003969   
    536. D(C  11,N  75,Cu 42,H  69)    138.3524         0.003969   
    537. D(Cu 42,N  75,C  11,C   4)     -6.0667         0.031301   
    538. D(C  11,N  75,Cu 42,N  74)      2.4327         0.003969   
    539. D(C  26,N  75,Cu 42,C   4)    159.6041         0.003969   
    540. D(C  26,N  75,Cu 42,C  11)    156.2511         0.003969   
    541. D(C  26,N  75,C  11,C   4)   -162.1677         0.031301   
    542. D(C  26,N  75,Cu 42,C  21)    -22.2736         0.003969   
    543. D(C  26,N  75,Cu 42,N  74)    158.6838         0.003969   
    544. D(C  16,O  76,C  14,H  44)   -179.5532         0.019912   
    545. D(C  16,O  76,C  14,H  50)    -60.8273         0.019912   
    546. D(C  16,O  76,C  14,H  58)     61.7289         0.019912   
    547. D(C  14,O  76,C  16,C  15)     -1.7887         0.031136   
    548. D(C  14,O  76,C  16,C  20)    177.3317         0.031136   
    549. C_2(Br  0)                     -0.6842         1.000000 C 
    550. C_1(Br  0)                      3.1048         1.000000 C 
    551. C_0(Br  0)                      0.4248         1.000000 C 
    552. C_0(C  21)                     -1.2098         1.000000 C 
    553. C_1(C  21)                      2.2330         1.000000 C 
    554. C_2(C  21)                      0.0259         1.000000 C 
    555. C_2(C  37)                      2.1005         1.000000 C 
    556. C_1(C  37)                      1.3772         1.000000 C 
    557. C_0(C  37)                      2.4014         1.000000 C 
    558. C_2(Cu 42)                     -0.3000         1.000000 C 
    559. C_2(Cu 42)                     -0.3000         1.000000 C 
    560. C_1(Cu 42)                      0.7620         1.000000 C 
    561. C_0(Cu 42)                      0.5837         1.000000 C 
    562. C_1(Cu 42)                      0.7620         1.000000 C 
    563. C_0(Cu 42)                      0.5837         1.000000 C 
    -----------------------------------------------------------------

Number of atoms                         .... 77
Number of degrees of freedom            .... 563

         *************************************************************
         *                GEOMETRY OPTIMIZATION CYCLE   1            *
         *************************************************************
---------------------------------
CARTESIAN COORDINATES (ANGSTROEM)
---------------------------------
  Br     0.424848    3.104792   -0.684158
  C     -2.431937   -1.126944   -1.411030
  C     -4.138033   -2.160968    0.022399
  C      3.321880   -2.275332   -1.062245
  C      0.901978   -1.940225   -0.847939
  C     -3.143206   -2.521561    0.910858
  C      0.730434   -3.315128   -1.096754
  C     -1.411016   -1.455671   -0.446298
  C      3.123016   -3.642105   -1.315230
  C     -2.099721   -0.495460   -2.634109
  C     -3.803336   -1.467392   -1.167310
  C      2.242259   -1.404321   -0.823175
  C     -1.781716   -2.188314    0.703332
  C      1.824574   -4.162170   -1.331160
  C     -6.003345    1.009947    0.902957
  C     -3.537337    1.734044   -0.291848
  C     -3.680050    1.518685    1.088267
  C     -3.070091   -0.168930   -3.563975
  C     -4.782805   -1.107643   -2.132039
  C     -2.300124    2.095385   -0.822220
  C     -2.569248    1.702490    1.934036
  C     -1.209812    2.232953    0.025936
  C     -1.341459    2.087753    1.408824
  C     -0.797045   -3.964011    2.158988
  C     -0.788487   -2.632185    1.706863
  C     -4.428617   -0.465226   -3.303339
  C      3.488053    0.654678   -0.752377
  C      4.030710    0.710031   -2.060010
  C      4.372078    0.965948    4.019029
  C      4.716600    1.102361    2.672090
  C      3.031175    1.033018    4.409344
  C      3.735252    1.307579    1.684368
  C      4.130527    1.426127    0.265714
  C      0.132960   -4.414368    3.099796
  C      5.118961    1.516421   -2.374870
  C      0.173333   -1.758785    2.243325
  C      2.050468    1.248952    3.436681
  C      2.401424    1.377158    2.100497
  C      5.231160    2.232205   -0.076776
  C      5.728799    2.294477   -1.378208
  C      1.096606   -3.538429    3.608254
  C      1.106881   -2.206195    3.177977
  Cu     0.583704    0.761990   -0.300050
  H     -1.052228   -0.256922   -2.815467
  H     -6.801292    0.723347    1.595254
  H     -5.179935   -2.412658    0.222249
  H      4.334976   -1.872402   -1.028406
  H     -0.282854   -3.717524   -1.122442
  H     -3.409419   -3.056141    1.824048
  H      3.983809   -4.290400   -1.488873
  H     -6.270717    1.956305    0.411667
  H     -1.528678   -4.660354    1.747440
  H     -4.372169    1.595704   -0.973346
  H     -2.190423    2.251094   -1.891652
  H     -2.682728    1.555708    3.006987
  H      1.653081   -5.221988   -1.528368
  H     -2.789891    0.320611   -4.497528
  H      3.549714    0.112749   -2.835379
  H     -5.877769    0.222600    0.148288
  H     -5.827336   -1.352176   -1.931879
  H     -0.499747    2.275587    2.071008
  H      5.152816    0.797572    4.761938
  H      5.762719    1.027831    2.372973
  H     -5.194109   -0.196867   -4.032862
  H      2.753440    0.919953    5.457920
  H      0.111639   -5.455328    3.425607
  H      0.195638   -0.721668    1.912198
  H      5.486644    1.552297   -3.402165
  H      1.000529    1.315537    3.723091
  H      1.630314    1.587339    1.370441
  H      5.704170    2.826108    0.707181
  H      6.574557    2.940696   -1.614156
  H      1.831429   -3.888352    4.334608
  H      1.844362   -1.506436    3.573150
  N     -0.121227   -1.041164   -0.693015
  N      2.358709   -0.081106   -0.479912
  O     -4.831667    1.155860    1.691214

----------------------------
CARTESIAN COORDINATES (A.U.)
----------------------------
  NO LB      ZA    FRAG     MASS         X           Y           Z
   0 Br   35.0000    0    79.900    0.802846    5.867207   -1.292871
   1 C     6.0000    0    12.011   -4.595695   -2.129615   -2.666461
   2 C     6.0000    0    12.011   -7.819749   -4.083638    0.042329
   3 C     6.0000    0    12.011    6.277443   -4.299755   -2.007352
   4 C     6.0000    0    12.011    1.704491   -3.666494   -1.602372
   5 C     6.0000    0    12.011   -5.939799   -4.765060    1.721272
   6 C     6.0000    0    12.011    1.380321   -6.264684   -2.072565
   7 C     6.0000    0    12.011   -2.666433   -2.750820   -0.843382
   8 C     6.0000    0    12.011    5.901645   -6.882581   -2.485424
   9 C     6.0000    0    12.011   -3.967898   -0.936284   -4.977745
  10 C     6.0000    0    12.011   -7.187264   -2.772969   -2.205896
  11 C     6.0000    0    12.011    4.237255   -2.653782   -1.555575
  12 C     6.0000    0    12.011   -3.366955   -4.135313    1.329104
  13 C     6.0000    0    12.011    3.447945   -7.865362   -2.515529
  14 C     6.0000    0    12.011  -11.344679    1.908523    1.706341
  15 C     6.0000    0    12.011   -6.684599    3.276868   -0.551513
  16 C     6.0000    0    12.011   -6.954287    2.869898    2.056527
  17 C     6.0000    0    12.011   -5.801631   -0.319232   -6.734937
  18 C     6.0000    0    12.011   -9.038191   -2.093141   -4.028969
  19 C     6.0000    0    12.011   -4.346604    3.959705   -1.553771
  20 C     6.0000    0    12.011   -4.855175    3.217241    3.654799
  21 C     6.0000    0    12.011   -2.286213    4.219670    0.049012
  22 C     6.0000    0    12.011   -2.534990    3.945282    2.662292
  23 C     6.0000    0    12.011   -1.506197   -7.490896    4.079896
  24 C     6.0000    0    12.011   -1.490024   -4.974109    3.225504
  25 C     6.0000    0    12.011   -8.368873   -0.879149   -6.242406
  26 C     6.0000    0    12.011    6.591466    1.237162   -1.421786
  27 C     6.0000    0    12.011    7.616939    1.341764   -3.892855
  28 C     6.0000    0    12.011    8.262029    1.825378    7.594864
  29 C     6.0000    0    12.011    8.913082    2.083160    5.049519
  30 C     6.0000    0    12.011    5.728091    1.952121    8.332453
  31 C     6.0000    0    12.011    7.058603    2.470966    3.182994
  32 C     6.0000    0    12.011    7.805564    2.694990    0.502126
  33 C     6.0000    0    12.011    0.251257   -8.341947    5.857765
  34 C     6.0000    0    12.011    9.673435    2.865621   -4.487854
  35 C     6.0000    0    12.011    0.327552   -3.323623    4.239270
  36 C     6.0000    0    12.011    3.874823    2.360178    6.494385
  37 C     6.0000    0    12.011    4.538034    2.602451    3.969364
  38 C     6.0000    0    12.011    9.885459    4.218257   -0.145086
  39 C     6.0000    0    12.011   10.825862    4.335934   -2.604436
  40 C     6.0000    0    12.011    2.072286   -6.686661    6.818611
  41 C     6.0000    0    12.011    2.091703   -4.169104    6.005506
  42 Cu   29.0000    0    63.550    1.103041    1.439952   -0.567012
  43 H     1.0000    0     1.008   -1.988423   -0.485512   -5.320461
  44 H     1.0000    0     1.008  -12.852579    1.366928    3.014593
  45 H     1.0000    0     1.008   -9.788658   -4.559262    0.419990
  46 H     1.0000    0     1.008    8.191918   -3.538327   -1.943406
  47 H     1.0000    0     1.008   -0.534516   -7.025102   -2.121108
  48 H     1.0000    0     1.008   -6.442868   -5.775269    3.446951
  49 H     1.0000    0     1.008    7.528309   -8.107681   -2.813562
  50 H     1.0000    0     1.008  -11.849937    3.696880    0.777939
  51 H     1.0000    0     1.008   -2.888783   -8.806793    3.302184
  52 H     1.0000    0     1.008   -8.262201    3.015443   -1.839358
  53 H     1.0000    0     1.008   -4.139300    4.253951   -3.574704
  54 H     1.0000    0     1.008   -5.069620    2.939862    5.682382
  55 H     1.0000    0     1.008    3.123870   -9.868128   -2.888196
  56 H     1.0000    0     1.008   -5.272130    0.605868   -8.499096
  57 H     1.0000    0     1.008    6.707988    0.213064   -5.358090
  58 H     1.0000    0     1.008  -11.107373    0.420653    0.280224
  59 H     1.0000    0     1.008  -11.012069   -2.555242   -3.650723
  60 H     1.0000    0     1.008   -0.944384    4.300235    3.913638
  61 H     1.0000    0     1.008    9.737411    1.507192    8.998759
  62 H     1.0000    0     1.008   10.889962    1.942320    4.484270
  63 H     1.0000    0     1.008   -9.815443   -0.372024   -7.621004
  64 H     1.0000    0     1.008    5.203247    1.738459   10.313974
  65 H     1.0000    0     1.008    0.210967  -10.309075    6.473459
  66 H     1.0000    0     1.008    0.369702   -1.363755    3.613530
  67 H     1.0000    0     1.008   10.368255    2.933415   -6.429160
  68 H     1.0000    0     1.008    1.890727    2.486005    7.035622
  69 H     1.0000    0     1.008    3.080847    2.999635    2.589759
  70 H     1.0000    0     1.008   10.779319    5.340571    1.336378
  71 H     1.0000    0     1.008   12.424112    5.557110   -3.050312
  72 H     1.0000    0     1.008    3.460900   -7.347921    8.191222
  73 H     1.0000    0     1.008    3.485339   -2.846752    6.752274
  74 N     7.0000    0    14.007   -0.229087   -1.967515   -1.309609
  75 N     7.0000    0    14.007    4.457315   -0.153268   -0.906902
  76 O     8.0000    0    15.999   -9.130527    2.184259    3.195931

--------------------------------
INTERNAL COORDINATES (ANGSTROEM)
--------------------------------
 Br     0   0   0     0.000000000000     0.00000000     0.00000000
 C      1   0   0     5.157242420566     0.00000000     0.00000000
 C      2   1   0     2.456560912961   130.38018864     0.00000000
 C      2   1   3     5.877657293298    67.02623313   243.75496244
 C      4   2   1     2.452376206126     9.07605203   104.65267552
 C      3   2   1     1.381689501611    89.14135091   290.40918887
 C      5   4   2     1.407726927103    88.35764971   101.98569605
 C      2   1   3     1.442584401379    72.58459394   285.03420663
 C      4   2   1     1.404142441393    92.34107641   183.18569266
 C      2   1   3     1.416001593798    68.02798819   150.07821222
 C      3   2   1     1.417207770739    30.69918448   111.57255563
 C      4   2   1     1.407621051383    30.49840013    18.49661694
 C      8   2   1     1.412739249710   118.46871972   135.55827185
 C      9   4   2     1.398811545272   119.69694996   350.87961344
 C      3   2   1     3.782786456743    97.20707377    45.60119003
 C     15   3   2     2.834267258868    71.75924373   347.11489754
 C     16  15   3     1.404088590866    57.18151573   271.38489388
 C     10   2   1     1.383072724874   121.42614212   232.22296297
 C     11   3   2     1.421083898880   122.07361806   179.49316592
 C     16  15   3     1.393757514089   177.43272680   264.98774462
 C     17  16  15     1.408187594627   119.35092174   181.83914134
 C     20  16  17     1.388190885865   119.36661709     0.34919522
 C     21  17  16     1.389870609813   120.40094025   359.72731944
 C     13   8   2     2.498322026241   137.67319633   143.87529981
 C     24  13   8     1.406502870462    30.91653555    69.70960029
 C     19  11   3     1.382061042094   121.08965279   181.87569379
 C     12   4   2     2.407590680705    97.89238527   203.92610226
 C     27  12   4     1.416843309336   101.79760667    62.05322268
 C     27  12   4     4.862581709873   100.23419531   267.50520856
 C     29  27  12     1.396977775283    26.48966023   141.13867547
 C     29  27  12     1.398164482471    95.89138945   298.37814114
 C     30  29  27     1.407392582399   121.26164595    26.36419976
 C     27  12   4     1.429830109928   135.63209992   269.00757353
 C     24  13   8     1.397443958430   152.08172108    69.01282734
 C     28  27  12     1.390572809109   122.09762443   198.67585685
 C     25  24  13     1.405601289093   118.02507485   179.51633094
 C     31  29  27     1.398030303335   119.07457397   347.95039577
 C     37  31  29     1.387441354310   120.45513904     0.84800013
 C     33  27  12     1.406575272173   119.17143363   152.05870388
 C     39  33  27     1.394721365624   122.13980680   359.29928562
 C     34  24  13     1.398003807607   120.11033172     0.30225764
 C     36  25  24     1.394726538730   120.96070150     1.15233817
 Cu    22  20  16     2.342370196411   117.00843007   116.55632394
 H     10   2   1     1.089510366234   117.83879626    51.18208360
 H     15   3   2     1.094592868769   106.69125601   182.32036889
 H      3   2   1     1.090342449510   150.20020099   110.19903103
 H      4   2   1     1.090808223814   147.01975793   350.65898320
 H      7   5   4     1.090566490561   118.53934602   180.76155112
 H      6   3   2     1.091128162961   119.36404143   179.36956427
 H      9   4   2     1.091514422420   119.67674467   171.41823316
 H     15   3   2     1.099293158292   137.52151993    35.30621316
 H     24  13   8     1.090665745070    88.25459130   250.68846195
 H     16  15   3     1.086517684852    64.11050224    89.29398033
 H     20  16  53     1.086260984186   120.09581233     1.17239651
 H     21  17  16     1.088873940027   119.47354388   178.76386932
 H     14   9   4     1.091565303529   120.58855824   179.87010818
 H     18  10   2     1.090726521237   120.07695980   179.77189542
 H     28  27  12     1.090550445923   117.76600146    20.22347315
 H     15   3   2     1.097819944655    35.15393776    82.34356639
 H     19  11   3     1.091286429882   118.58548472     1.68268315
 H     23  21  17     1.087312293868   120.10564762   177.00174043
 H     29  27  12     1.090787653947   142.05020255   101.27030404
 H     30  29  27     1.090592701255   119.62594500   207.68956374
 H     26  19  11     1.090962012166   120.08219838   179.97988672
 H     31  29  27     1.090610946547   120.50811812   168.03505196
 H     34  24  13     1.090964798802   119.70621154   181.09793915
 H     36  25  24     1.088924071447   119.32528919   180.32263021
 H     35  28  27     1.091701719583   119.71582270   181.85686293
 H     37  31  29     1.090337123504   120.14407660   180.69134291
 H     38  37  31     1.082482091367   119.16076190   182.67342562
 H     39  33  27     1.091351610616   118.43098374   179.20531639
 H     40  39  33     1.090218367094   120.34513374   179.09189743
 H     41  34  24     1.090871805097   120.36496666   180.67234952
 H     42  36  25     1.090734420489   119.31117417   179.70760509
 N      5   4  47     1.370861410591   146.72066057     8.03214687
 N     12   4   2     1.371965411639   125.04279981   193.37528483
 O     17  16  15     1.349595056306   124.54816354     0.93293548

---------------------------
INTERNAL COORDINATES (A.U.)
---------------------------
 Br     0   0   0     0.000000000000     0.00000000     0.00000000
 C      1   0   0     9.745775781110     0.00000000     0.00000000
 C      2   1   0     4.642227356792   130.38018864     0.00000000
 C      2   1   3    11.107162593379    67.02623313   243.75496244
 C      4   2   1     4.634319406922     9.07605203   104.65267552
 C      3   2   1     2.611014760159    89.14135091   290.40918887
 C      5   4   2     2.660218363570    88.35764971   101.98569605
 C      2   1   3     2.726089443674    72.58459394   285.03420663
 C      4   2   1     2.653444667249    92.34107641   183.18569266
 C      2   1   3     2.675855217474    68.02798819   150.07821222
 C      3   2   1     2.678134561561    30.69918448   111.57255563
 C      4   2   1     2.660018287457    30.49840013    18.49661694
 C      8   2   1     2.669690280594   118.46871972   135.55827185
 C      9   4   2     2.643370733531   119.69694996   350.87961344
 C      3   2   1     7.148430426351    97.20707377    45.60119003
 C     15   3   2     5.355988909601    71.75924373   347.11489754
 C     16  15   3     2.653342904501    57.18151573   271.38489388
 C     10   2   1     2.613628673308   121.42614212   232.22296297
 C     11   3   2     2.685459382208   122.07361806   179.49316592
 C     16  15   3     2.633819998724   177.43272680   264.98774462
 C     17  16  15     2.661088899030   119.35092174   181.83914134
 C     20  16  17     2.623300595891   119.36661709     0.34919522
 C     21  17  16     2.626474814132   120.40094025   359.72731944
 C     13   8   2     4.721144423938   137.67319633   143.87529981
 C     24  13   8     2.657905231747    30.91653555    69.70960029
 C     19  11   3     2.611716869920   121.08965279   181.87569379
 C     12   4   2     4.549687029113    97.89238527   203.92610226
 C     27  12   4     2.677445829324   101.79760667    62.05322268
 C     27  12   4     9.188947735474   100.23419531   267.50520856
 C     29  27  12     2.639905410459    26.48966023   141.13867547
 C     29  27  12     2.642147962046    95.89138945   298.37814114
 C     30  29  27     2.659586543647   121.26164595    26.36419976
 C     27  12   4     2.701987325799   135.63209992   269.00757353
 C     24  13   8     2.640786368935   152.08172108    69.01282734
 C     28  27  12     2.627801778494   122.09762443   198.67585685
 C     25  24  13     2.656201489873   118.02507485   179.51633094
 C     31  29  27     2.641894400226   119.07457397   347.95039577
 C     37  31  29     2.621884186523   120.45513904     0.84800013
 C     33  27  12     2.658042051153   119.17143363   152.05870388
 C     39  33  27     2.635641414158   122.13980680   359.29928562
 C     34  24  13     2.641844330556   120.11033172     0.30225764
 C     36  25  24     2.635651189911   120.96070150     1.15233817
 Cu    22  20  16     4.426438175476   117.00843007   116.55632394
 H     10   2   1     2.058876212250   117.83879626    51.18208360
 H     15   3   2     2.068480750117   106.69125601   182.32036889
 H      3   2   1     2.060448621764   150.20020099   110.19903103
 H      4   2   1     2.061328807638   147.01975793   350.65898320
 H      7   5   4     2.060871997991   118.53934602   180.76155112
 H      6   3   2     2.061933405004   119.36404143   179.36956427
 H      9   4   2     2.062663329600   119.67674467   171.41823316
 H     15   3   2     2.077363010065   137.52151993    35.30621316
 H     24  13   8     2.061059561832    88.25459130   250.68846195
 H     16  15   3     2.053220864032    64.11050224    89.29398033
 H     20  16  53     2.052735770075   120.09581233     1.17239651
 H     21  17  16     2.057673541014   119.47354388   178.76386932
 H     14   9   4     2.062759480961   120.58855824   179.87010818
 H     18  10   2     2.061174412142   120.07695980   179.77189542
 H     28  27  12     2.060841678021   117.76600146    20.22347315
 H     15   3   2     2.074579039754    35.15393776    82.34356639
 H     19  11   3     2.062232486142   118.58548472     1.68268315
 H     23  21  17     2.054722457456   120.10564762   177.00174043
 H     29  27  12     2.061289936223   142.05020255   101.27030404
 H     30  29  27     2.060921529025   119.62594500   207.68956374
 H     26  19  11     2.061619425505   120.08219838   179.97988672
 H     31  29  27     2.060956007630   120.50811812   168.03505196
 H     34  24  13     2.061624691485   119.70621154   181.09793915
 H     36  25  24     2.057768275669   119.32528919   180.32263021
 H     35  28  27     2.063017269943   119.71582270   181.85686293
 H     37  31  29     2.060438557070   120.14407660   180.69134291
 H     38  37  31     2.045594697557   119.16076190   182.67342562
 H     39  33  27     2.062355659879   118.43098374   179.20531639
 H     40  39  33     2.060214139979   120.34513374   179.09189743
 H     41  34  24     2.061448958849   120.36496666   180.67234952
 H     42  36  25     2.061189339565   119.31117417   179.70760509
 N      5   4  47     2.590552633579   146.72066057     8.03214687
 N     12   4   2     2.592638893210   125.04279981   193.37528483
 O     17  16  15     2.550365048112   124.54816354     0.93293548

---------------------
BASIS SET INFORMATION
---------------------
There are 7 groups of distinct atoms

 Group   1 Type Br  : 17s13p8d1f contracted to 6s5p4d1f pattern {842111/64111/5111/1}
 Group   2 Type C   : 7s4p1d contracted to 3s2p1d pattern {511/31/1}
 Group   3 Type C   : 11s6p2d1f contracted to 5s3p2d1f pattern {62111/411/11/1}
 Group   4 Type Cu  : 17s11p7d1f contracted to 6s4p4d1f pattern {842111/6311/4111/1}
 Group   5 Type H   : 3s contracted to 1s pattern {3}
 Group   6 Type N   : 11s6p2d1f contracted to 5s3p2d1f pattern {62111/411/11/1}
 Group   7 Type O   : 7s4p1d contracted to 3s2p1d pattern {511/31/1}

Atom   0Br   basis set group =>   1
Atom   1C    basis set group =>   2
Atom   2C    basis set group =>   2
Atom   3C    basis set group =>   2
Atom   4C    basis set group =>   2
Atom   5C    basis set group =>   2
Atom   6C    basis set group =>   2
Atom   7C    basis set group =>   2
Atom   8C    basis set group =>   2
Atom   9C    basis set group =>   2
Atom  10C    basis set group =>   2
Atom  11C    basis set group =>   2
Atom  12C    basis set group =>   2
Atom  13C    basis set group =>   2
Atom  14C    basis set group =>   2
Atom  15C    basis set group =>   2
Atom  16C    basis set group =>   2
Atom  17C    basis set group =>   2
Atom  18C    basis set group =>   2
Atom  19C    basis set group =>   2
Atom  20C    basis set group =>   2
Atom  21C    basis set group =>   3
Atom  22C    basis set group =>   2
Atom  23C    basis set group =>   2
Atom  24C    basis set group =>   2
Atom  25C    basis set group =>   2
Atom  26C    basis set group =>   2
Atom  27C    basis set group =>   2
Atom  28C    basis set group =>   2
Atom  29C    basis set group =>   2
Atom  30C    basis set group =>   2
Atom  31C    basis set group =>   2
Atom  32C    basis set group =>   2
Atom  33C    basis set group =>   2
Atom  34C    basis set group =>   2
Atom  35C    basis set group =>   2
Atom  36C    basis set group =>   2
Atom  37C    basis set group =>   3
Atom  38C    basis set group =>   2
Atom  39C    basis set group =>   2
Atom  40C    basis set group =>   2
Atom  41C    basis set group =>   2
Atom  42Cu   basis set group =>   4
Atom  43H    basis set group =>   5
Atom  44H    basis set group =>   5
Atom  45H    basis set group =>   5
Atom  46H    basis set group =>   5
Atom  47H    basis set group =>   5
Atom  48H    basis set group =>   5
Atom  49H    basis set group =>   5
Atom  50H    basis set group =>   5
Atom  51H    basis set group =>   5
Atom  52H    basis set group =>   5
Atom  53H    basis set group =>   5
Atom  54H    basis set group =>   5
Atom  55H    basis set group =>   5
Atom  56H    basis set group =>   5
Atom  57H    basis set group =>   5
Atom  58H    basis set group =>   5
Atom  59H    basis set group =>   5
Atom  60H    basis set group =>   5
Atom  61H    basis set group =>   5
[...]
177:   1471.02   0.006426   32.47  0.001363  (-0.030593 -0.016878  0.011934)
178:   1474.34   0.011574   58.49  0.002450  ( 0.043087  0.022933 -0.008208)
179:   1489.28   0.004843   24.48  0.001015  (-0.002760 -0.031179 -0.005931)
180:   1491.14   0.074658  377.29  0.015624  ( 0.104905  0.067590 -0.007131)
181:   1497.49   0.053657  271.16  0.011182  ( 0.097438  0.008912 -0.040101)
182:   1502.45   0.001240    6.27  0.000258  ( 0.003679 -0.014600  0.005565)
183:   1506.47   0.078767  398.05  0.016316  (-0.023829  0.120172  0.036157)
184:   1518.01   0.014512   73.34  0.002983  ( 0.005774  0.048075 -0.025271)
185:   1522.23   0.017751   89.70  0.003639  (-0.034694 -0.012906 -0.047631)
186:   1538.74   0.010713   54.14  0.002173  ( 0.042506  0.018584 -0.004537)
187:   1571.28   0.037826  191.16  0.007512  (-0.071094 -0.048326  0.011073)
188:   1573.06   0.009552   48.27  0.001895  ( 0.018142  0.012420  0.037569)
189:   1579.85   0.002448   12.37  0.000484  (-0.013539 -0.002213 -0.017184)
190:   1584.80   0.008345   42.17  0.001643  ( 0.035499 -0.003239 -0.019302)
191:   1590.64   0.033132  167.43  0.006500  (-0.077202 -0.023129 -0.002212)
192:   1605.97   0.000509    2.57  0.000099  ( 0.003920 -0.005485 -0.007313)
193:   1610.79   0.003758   18.99  0.000728  ( 0.021840  0.015812 -0.001072)
194:   1616.08   0.006908   34.91  0.001334  (-0.030424  0.001212 -0.020173)
195:   1618.10   0.032619  164.84  0.006291  (-0.077597 -0.003163  0.016108)
196:   1621.27   0.021285  107.57  0.004097  (-0.056680 -0.018941  0.022927)
197:   1629.92   0.002629   13.28  0.000503  ( 0.000790  0.001597 -0.022364)
198:   1636.87   0.009073   45.85  0.001730  (-0.025544  0.015313 -0.029031)
199:   1644.27   0.001602    8.10  0.000304  (-0.015884 -0.000354 -0.007187)
200:   2992.59   0.010208   51.59  0.001064  ( 0.032448  0.000035  0.003401)
201:   3076.06   0.001282    6.48  0.000130  ( 0.002510  0.010959  0.001919)
202:   3103.78   0.000234    1.18  0.000024  ( 0.000744 -0.002247 -0.004233)
203:   3115.38   0.001221    6.17  0.000122  (-0.010139 -0.004310 -0.000952)
204:   3116.46   0.001231    6.22  0.000123  ( 0.009741  0.001523 -0.005105)
205:   3118.63   0.002866   14.48  0.000287  (-0.014098 -0.009381 -0.000095)
206:   3120.86   0.001050    5.30  0.000105  ( 0.007067  0.003391 -0.006596)
207:   3121.02   0.000838    4.23  0.000084  ( 0.000504  0.003266 -0.008534)
208:   3121.41   0.002870   14.51  0.000287  ( 0.001043 -0.012287 -0.011615)
209:   3121.55   0.001242    6.27  0.000124  ( 0.002506 -0.008954  0.006137)
210:   3122.52   0.000261    1.32  0.000026  ( 0.004336 -0.000610  0.002638)
211:   3126.25   0.000302    1.53  0.000030  ( 0.004414  0.000952 -0.003129)
212:   3126.47   0.000072    0.36  0.000007  (-0.000049 -0.001259  0.002365)
213:   3127.82   0.005367   27.12  0.000535  ( 0.022045  0.006693  0.002164)
214:   3128.47   0.001643    8.30  0.000164  (-0.012350 -0.003357  0.000323)
215:   3130.27   0.000122    0.62  0.000012  ( 0.000816 -0.000959  0.003258)
216:   3132.68   0.002815   14.22  0.000280  (-0.004254 -0.005685 -0.015165)
217:   3133.25   0.002392   12.09  0.000238  (-0.011896 -0.005830 -0.007918)
218:   3136.07   0.002969   15.01  0.000295  (-0.016612  0.003722 -0.002377)
219:   3136.26   0.005226   26.41  0.000520  (-0.007655  0.020370  0.006817)
220:   3136.46   0.003876   19.59  0.000386  (-0.019379  0.000187  0.003167)
221:   3136.87   0.005858   29.60  0.000583  ( 0.021249  0.007614 -0.008559)
222:   3141.18   0.004974   25.14  0.000494  (-0.002725  0.020989 -0.006798)
223:   3143.94   0.006083   30.74  0.000604  (-0.008837  0.006581 -0.021962)
224:   3144.29   0.004208   21.27  0.000418  (-0.011946 -0.008489  0.014245)
225:   3144.97   0.000241    1.22  0.000024  ( 0.004251  0.001536  0.001863)
226:   3145.47   0.004403   22.25  0.000437  (-0.006995 -0.001308 -0.019651)
227:   3149.34   0.000456    2.30  0.000045  ( 0.004709  0.002900 -0.003821)
228:   3159.41   0.000955    4.83  0.000094  (-0.004961  0.004990  0.006696)
229:   3165.08   0.000081    0.41  0.000008  (-0.002711  0.000436  0.000673)
230:   3175.24   0.000419    2.12  0.000041  (-0.005494  0.001667  0.002871)

* The epsilon (eps) is given for a Dirac delta lineshape.
** The dipole moment derivative (T) already includes vibrational overlap.

The first frequency considered to be a vibration is 7
The total number of vibrations considered is 224


--------------------------
THERMOCHEMISTRY AT 298.15K
--------------------------

Temperature         ... 298.15 K
Pressure            ... 1.00 atm
Total Mass          ... 711.16 AMU

Throughout the following assumptions are being made:
  (1) The electronic state is orbitally nondegenerate
  (2) There are no thermally accessible electronically excited states
  (3) Hindered rotations indicated by low frequency modes are not
      treated as such but are treated as vibrations and this may
      cause some error
  (4) All equations used are the standard statistical mechanics
      equations for an ideal gas
  (5) All vibrations are strictly harmonic

freq.       2.07  E(vib)   ...       0.59 
freq.      14.29  E(vib)   ...       0.57 
freq.      17.72  E(vib)   ...       0.57 
freq.      23.38  E(vib)   ...       0.56 
freq.      29.17  E(vib)   ...       0.55 
freq.      41.33  E(vib)   ...       0.54 
freq.      43.62  E(vib)   ...       0.53 
freq.      50.59  E(vib)   ...       0.52 
freq.      56.78  E(vib)   ...       0.52 
freq.      59.90  E(vib)   ...       0.51 
freq.      62.66  E(vib)   ...       0.51 
freq.      69.46  E(vib)   ...       0.50 
freq.      81.04  E(vib)   ...       0.48 
freq.      85.96  E(vib)   ...       0.48 
freq.      92.31  E(vib)   ...       0.47 
freq.     103.77  E(vib)   ...       0.46 
freq.     108.50  E(vib)   ...       0.45 
freq.     110.71  E(vib)   ...       0.45 
freq.     118.43  E(vib)   ...       0.44 
freq.     136.76  E(vib)   ...       0.42 
freq.     143.92  E(vib)   ...       0.41 
freq.     146.69  E(vib)   ...       0.41 
freq.     155.27  E(vib)   ...       0.40 
freq.     172.98  E(vib)   ...       0.38 
freq.     184.89  E(vib)   ...       0.37 
freq.     187.94  E(vib)   ...       0.36 
freq.     192.19  E(vib)   ...       0.36 
freq.     207.67  E(vib)   ...       0.34 
freq.     222.79  E(vib)   ...       0.33 
freq.     237.59  E(vib)   ...       0.32 
freq.     249.30  E(vib)   ...       0.31 
freq.     260.69  E(vib)   ...       0.30 
freq.     264.25  E(vib)   ...       0.29 
freq.     282.43  E(vib)   ...       0.28 
freq.     292.53  E(vib)   ...       0.27 
freq.     297.92  E(vib)   ...       0.27 
freq.     302.36  E(vib)   ...       0.26 
freq.     326.29  E(vib)   ...       0.24 
freq.     340.60  E(vib)   ...       0.23 
freq.     352.54  E(vib)   ...       0.22 
freq.     388.01  E(vib)   ...       0.20 
freq.     404.95  E(vib)   ...       0.19 
freq.     409.27  E(vib)   ...       0.19 
freq.     416.49  E(vib)   ...       0.18 
freq.     423.28  E(vib)   ...       0.18 
freq.     428.01  E(vib)   ...       0.18 
freq.     440.41  E(vib)   ...       0.17 
freq.     460.82  E(vib)   ...       0.16 
freq.     469.77  E(vib)   ...       0.16 
freq.     472.69  E(vib)   ...       0.15 
freq.     487.22  E(vib)   ...       0.15 
freq.     504.14  E(vib)   ...       0.14 
freq.     516.80  E(vib)   ...       0.13 
freq.     529.27  E(vib)   ...       0.13 
freq.     533.24  E(vib)   ...       0.13 
freq.     551.07  E(vib)   ...       0.12 
freq.     557.21  E(vib)   ...       0.12 
freq.     562.34  E(vib)   ...       0.11 
freq.     568.04  E(vib)   ...       0.11 
freq.     578.28  E(vib)   ...       0.11 
freq.     596.13  E(vib)   ...       0.10 
freq.     601.58  E(vib)   ...       0.10 
freq.     604.35  E(vib)   ...       0.10 
freq.     622.10  E(vib)   ...       0.09 
freq.     629.38  E(vib)   ...       0.09 
freq.     632.65  E(vib)   ...       0.09 
freq.     634.25  E(vib)   ...       0.09 
freq.     647.28  E(vib)   ...       0.09 
freq.     660.24  E(vib)   ...       0.08 
freq.     679.62  E(vib)   ...       0.08 
freq.     693.85  E(vib)   ...       0.07 
freq.     694.93  E(vib)   ...       0.07 
freq.     697.70  E(vib)   ...       0.07 
freq.     704.29  E(vib)   ...       0.07 
freq.     710.58  E(vib)   ...       0.07 
freq.     728.85  E(vib)   ...       0.06 
freq.     730.97  E(vib)   ...       0.06 
freq.     734.31  E(vib)   ...       0.06 
freq.     736.23  E(vib)   ...       0.06 
freq.     757.41  E(vib)   ...       0.06 
freq.     765.03  E(vib)   ...       0.06 
freq.     771.21  E(vib)   ...       0.05 
freq.     777.62  E(vib)   ...       0.05 
freq.     778.36  E(vib)   ...       0.05 
freq.     796.51  E(vib)   ...       0.05 
freq.     800.63  E(vib)   ...       0.05 
freq.     802.75  E(vib)   ...       0.05 
freq.     810.50  E(vib)   ...       0.05 
freq.     813.12  E(vib)   ...       0.05 
freq.     822.85  E(vib)   ...       0.05 
freq.     828.97  E(vib)   ...       0.04 
freq.     835.49  E(vib)   ...       0.04 
freq.     842.52  E(vib)   ...       0.04 
freq.     867.11  E(vib)   ...       0.04 
freq.     871.25  E(vib)   ...       0.04 
freq.     875.30  E(vib)   ...       0.04 
freq.     885.62  E(vib)   ...       0.04 
freq.     898.64  E(vib)   ...       0.03 
freq.     903.84  E(vib)   ...       0.03 
freq.     911.00  E(vib)   ...       0.03 
freq.     912.44  E(vib)   ...       0.03 
freq.     915.76  E(vib)   ...       0.03 
freq.     918.25  E(vib)   ...       0.03 
freq.     932.93  E(vib)   ...       0.03 
freq.     935.34  E(vib)   ...       0.03 
freq.     942.42  E(vib)   ...       0.03 
freq.     953.34  E(vib)   ...       0.03 
freq.     962.11  E(vib)   ...       0.03 
freq.     963.43  E(vib)   ...       0.03 
freq.     967.18  E(vib)   ...       0.03 
freq.     976.69  E(vib)   ...       0.03 
freq.     981.96  E(vib)   ...       0.02 
freq.     985.29  E(vib)   ...       0.02 
freq.     992.13  E(vib)   ...       0.02 
freq.    1007.35  E(vib)   ...       0.02 
freq.    1009.61  E(vib)   ...       0.02 
freq.    1018.81  E(vib)   ...       0.02 
freq.    1024.44  E(vib)   ...       0.02 
freq.    1031.69  E(vib)   ...       0.02 
freq.    1037.88  E(vib)   ...       0.02 
freq.    1047.70  E(vib)   ...       0.02 
freq.    1048.95  E(vib)   ...       0.02 
freq.    1054.01  E(vib)   ...       0.02 
freq.    1055.78  E(vib)   ...       0.02 
freq.    1069.02  E(vib)   ...       0.02 
freq.    1087.21  E(vib)   ...       0.02 
freq.    1088.48  E(vib)   ...       0.02 
freq.    1105.77  E(vib)   ...       0.02 
freq.    1117.38  E(vib)   ...       0.01 
freq.    1118.72  E(vib)   ...       0.01 
freq.    1121.14  E(vib)   ...       0.01 
freq.    1144.20  E(vib)   ...       0.01 
freq.    1149.80  E(vib)   ...       0.01 
freq.    1153.99  E(vib)   ...       0.01 
freq.    1155.87  E(vib)   ...       0.01 
freq.    1159.61  E(vib)   ...       0.01 
freq.    1161.64  E(vib)   ...       0.01 
freq.    1168.36  E(vib)   ...       0.01 
freq.    1177.71  E(vib)   ...       0.01 
freq.    1181.86  E(vib)   ...       0.01 
freq.    1188.53  E(vib)   ...       0.01 
freq.    1201.51  E(vib)   ...       0.01 
freq.    1207.42  E(vib)   ...       0.01 
freq.    1223.82  E(vib)   ...       0.01 
freq.    1239.09  E(vib)   ...       0.01 
freq.    1246.72  E(vib)   ...       0.01 
freq.    1257.08  E(vib)   ...       0.01 
freq.    1282.89  E(vib)   ...       0.01 
freq.    1292.69  E(vib)   ...       0.01 
freq.    1295.09  E(vib)   ...       0.01 
freq.    1298.53  E(vib)   ...       0.01 
freq.    1305.67  E(vib)   ...       0.01 
freq.    1307.42  E(vib)   ...       0.01 
freq.    1323.91  E(vib)   ...       0.01 
freq.    1331.21  E(vib)   ...       0.01 
freq.    1345.91  E(vib)   ...       0.01 
freq.    1346.34  E(vib)   ...       0.01 
freq.    1346.62  E(vib)   ...       0.01 
freq.    1360.45  E(vib)   ...       0.01 
freq.    1362.52  E(vib)   ...       0.01 
freq.    1371.14  E(vib)   ...       0.01 
freq.    1377.39  E(vib)   ...       0.01 
freq.    1394.04  E(vib)   ...       0.00 
freq.    1415.24  E(vib)   ...       0.00 
freq.    1431.03  E(vib)   ...       0.00 
freq.    1440.26  E(vib)   ...       0.00 
freq.    1448.12  E(vib)   ...       0.00 
freq.    1457.05  E(vib)   ...       0.00 
freq.    1465.97  E(vib)   ...       0.00 
freq.    1467.33  E(vib)   ...       0.00 
freq.    1471.02  E(vib)   ...       0.00 
freq.    1474.34  E(vib)   ...       0.00 
freq.    1489.28  E(vib)   ...       0.00 
freq.    1491.14  E(vib)   ...       0.00 
freq.    1497.49  E(vib)   ...       0.00 
freq.    1502.45  E(vib)   ...       0.00 
freq.    1506.47  E(vib)   ...       0.00 
freq.    1518.01  E(vib)   ...       0.00 
freq.    1522.23  E(vib)   ...       0.00 
freq.    1538.74  E(vib)   ...       0.00 
freq.    1571.28  E(vib)   ...       0.00 
freq.    1573.06  E(vib)   ...       0.00 
freq.    1579.85  E(vib)   ...       0.00 
freq.    1584.80  E(vib)   ...       0.00 
freq.    1590.64  E(vib)   ...       0.00 
freq.    1605.97  E(vib)   ...       0.00 
freq.    1610.79  E(vib)   ...       0.00 
freq.    1616.08  E(vib)   ...       0.00 
freq.    1618.10  E(vib)   ...       0.00 
freq.    1621.27  E(vib)   ...       0.00 
freq.    1629.92  E(vib)   ...       0.00 
freq.    1636.87  E(vib)   ...       0.00 
freq.    1644.27  E(vib)   ...       0.00 
freq.    2992.59  E(vib)   ...       0.00 
freq.    3076.06  E(vib)   ...       0.00 
freq.    3103.78  E(vib)   ...       0.00 
freq.    3115.38  E(vib)   ...       0.00 
freq.    3116.46  E(vib)   ...       0.00 
freq.    3118.63  E(vib)   ...       0.00 
freq.    3120.86  E(vib)   ...       0.00 
freq.    3121.02  E(vib)   ...       0.00 
freq.    3121.41  E(vib)   ...       0.00 
freq.    3121.55  E(vib)   ...       0.00 
freq.    3122.52  E(vib)   ...       0.00 
freq.    3126.25  E(vib)   ...       0.00 
freq.    3126.47  E(vib)   ...       0.00 
freq.    3127.82  E(vib)   ...       0.00 
freq.    3128.47  E(vib)   ...       0.00 
freq.    3130.27  E(vib)   ...       0.00 
freq.    3132.68  E(vib)   ...       0.00 
freq.    3133.25  E(vib)   ...       0.00 
freq.    3136.07  E(vib)   ...       0.00 
freq.    3136.26  E(vib)   ...       0.00 
freq.    3136.46  E(vib)   ...       0.00 
freq.    3136.87  E(vib)   ...       0.00 
freq.    3141.18  E(vib)   ...       0.00 
freq.    3143.94  E(vib)   ...       0.00 
freq.    3144.29  E(vib)   ...       0.00 
freq.    3144.97  E(vib)   ...       0.00 
freq.    3145.47  E(vib)   ...       0.00 
freq.    3149.34  E(vib)   ...       0.00 
freq.    3159.41  E(vib)   ...       0.00 
freq.    3165.08  E(vib)   ...       0.00 
freq.    3175.24  E(vib)   ...       0.00 

------------
INNER ENERGY
------------

The inner energy is: U= E(el) + E(ZPE) + E(vib) + E(rot) + E(trans)
    E(el)   - is the total energy from the electronic structure calculation
              = E(kin-el) + E(nuc-el) + E(el-el) + E(nuc-nuc)
    E(ZPE)  - the the zero temperature vibrational energy from the frequency calculation
    E(vib)  - the the finite temperature correction to E(ZPE) due to population
              of excited vibrational states
    E(rot)  - is the rotational thermal energy
    E(trans)- is the translational thermal energy

Summary of contributions to the inner energy U:
Electronic energy                ...  -5979.57360457 Eh
Zero point energy                ...      0.59391138 Eh     372.68 kcal/mol
Thermal vibrational correction   ...      0.03661278 Eh      22.97 kcal/mol
Thermal rotational correction    ...      0.00141627 Eh       0.89 kcal/mol
Thermal translational correction ...      0.00141627 Eh       0.89 kcal/mol
-----------------------------------------------------------------------
Total thermal energy                  -5978.94024787 Eh


Summary of corrections to the electronic energy:
(perhaps to be used in another calculation)
Total thermal correction                  0.03944532 Eh      24.75 kcal/mol
Non-thermal (ZPE) correction              0.59391138 Eh     372.68 kcal/mol
-----------------------------------------------------------------------
Total correction                          0.63335670 Eh     397.44 kcal/mol


--------
ENTHALPY
--------

The enthalpy is H = U + kB*T
                kB is Boltzmann's constant
Total free energy                 ...  -5978.94024787 Eh 
Thermal Enthalpy correction       ...      0.00094421 Eh       0.59 kcal/mol
-----------------------------------------------------------------------
Total Enthalpy                    ...  -5978.93930366 Eh


Note: Only C1 symmetry has been detected, increase convergence thresholds 
      if your molecule has a higher symmetry. Symmetry factor of 1.0 is   
      used for the rotational entropy correction. 
 

Note: Rotational entropy computed according to Herzberg 
Infrared and Raman Spectra, Chapter V,1, Van Nostrand Reinhold, 1945 
Point Group:  C1, Symmetry Number:   1  
Rotational constants in cm-1:     0.003050     0.001988     0.001770 

Vibrational entropy computed according to the QRRHO of S. Grimme
Chem.Eur.J. 2012 18 9955


-------
ENTROPY
-------

The entropy contributions are T*S = T*(S(el)+S(vib)+S(rot)+S(trans))
     S(el)   - electronic entropy
     S(vib)  - vibrational entropy
     S(rot)  - rotational entropy
     S(trans)- translational entropy
The entropies will be listed as multiplied by the temperature to get
units of energy

Electronic entropy                ...      0.00000000 Eh      0.00 kcal/mol
Vibrational entropy               ...      0.06692145 Eh     41.99 kcal/mol
Rotational entropy                ...      0.01817350 Eh     11.40 kcal/mol
Translational entropy             ...      0.02164958 Eh     13.59 kcal/mol
-----------------------------------------------------------------------
Final entropy term                ...      0.10674453 Eh     66.98 kcal/mol

In case the symmetry of your molecule has not been determined correctly
or in case you have a reason to use a different symmetry number we print 
out the resulting rotational entropy values for sn=1,12 :
 --------------------------------------------------------
|  sn= 1 | S(rot)=       0.01817350 Eh     11.40 kcal/mol|
|  sn= 2 | S(rot)=       0.01751905 Eh     10.99 kcal/mol|
|  sn= 3 | S(rot)=       0.01713621 Eh     10.75 kcal/mol|
|  sn= 4 | S(rot)=       0.01686459 Eh     10.58 kcal/mol|
|  sn= 5 | S(rot)=       0.01665390 Eh     10.45 kcal/mol|
|  sn= 6 | S(rot)=       0.01648176 Eh     10.34 kcal/mol|
|  sn= 7 | S(rot)=       0.01633621 Eh     10.25 kcal/mol|
|  sn= 8 | S(rot)=       0.01621013 Eh     10.17 kcal/mol|
|  sn= 9 | S(rot)=       0.01609893 Eh     10.10 kcal/mol|
|  sn=10 | S(rot)=       0.01599945 Eh     10.04 kcal/mol|
|  sn=11 | S(rot)=       0.01590946 Eh      9.98 kcal/mol|
|  sn=12 | S(rot)=       0.01582730 Eh      9.93 kcal/mol|
 --------------------------------------------------------


-------------------
GIBBS FREE ENERGY
-------------------

The Gibbs free energy is G = H - T*S

Total enthalpy                    ...  -5978.93930366 Eh 
Total entropy correction          ...     -0.10674453 Eh    -66.98 kcal/mol
-----------------------------------------------------------------------
Final Gibbs free energy         ...  -5979.04604820 Eh

For completeness - the Gibbs free energy minus the electronic energy
G-E(el)                           ...      0.52755638 Eh    331.05 kcal/mol


Timings for individual modules:

Sum of individual times         ...     2256.284 sec (=  37.605 min)
GTO integral calculation        ...        6.673 sec (=   0.111 min)   0.3 %
SCF iterations                  ...       87.546 sec (=   1.459 min)   3.9 %
SCF Gradient evaluation         ...        8.222 sec (=   0.137 min)   0.4 %
Geometry relaxation             ...        1.170 sec (=   0.020 min)   0.1 %
Analytical frequency calculation...     2152.673 sec (=  35.878 min)  95.4 %
                             ****ORCA TERMINATED NORMALLY****
TOTAL RUN TIME: 0 days 0 hours 37 minutes 42 seconds 430 msec
