
                                 *****************
                                 * O   R   C   A *
                                 *****************

                                            #,                                       
                                            ###                                      
                                            ####                                     
                                            #####                                    
                                            ######                                   
                                           ########,                                 
                                     ,,################,,,,,                         
                               ,,#################################,,                 
                          ,,##########################################,,             
                       ,#########################################, ''#####,          
                    ,#############################################,,   '####,        
                  ,##################################################,,,,####,       
                ,###########''''           ''''###############################       
              ,#####''   ,,,,##########,,,,          '''####'''          '####       
            ,##' ,,,,###########################,,,                        '##       
           ' ,,###''''                  '''############,,,                           
         ,,##''                                '''############,,,,        ,,,,,,###''
      ,#''                                            '''#######################'''  
     '                                                          ''''####''''         
             ,#######,   #######,   ,#######,      ##                                
            ,#'     '#,  ##    ##  ,#'     '#,    #''#        ######   ,####,        
            ##       ##  ##   ,#'  ##            #'  '#       #        #'  '#        
            ##       ##  #######   ##           ,######,      #####,   #    #        
            '#,     ,#'  ##    ##  '#,     ,#' ,#      #,         ##   #,  ,#        
             '#######'   ##     ##  '#######'  #'      '#     #####' # '####'        



                  #######################################################
                  #                        -***-                        #
                  #          Department of theory and spectroscopy      #
                  #    Directorship and core code : Frank Neese         #
                  #        Max Planck Institute fuer Kohlenforschung    #
                  #                Kaiser Wilhelm Platz 1               #
                  #                 D-45470 Muelheim/Ruhr               #
                  #                      Germany                        #
                  #                                                     #
                  #                  All rights reserved                #
                  #                        -***-                        #
                  #######################################################


                         Program Version 5.0.1 -  RELEASE  -


 With contributions from (in alphabetic order):
   Daniel Aravena         : Magnetic Suceptibility
   Michael Atanasov       : Ab Initio Ligand Field Theory (pilot matlab implementation)
   Alexander A. Auer      : GIAO ZORA, VPT2 properties, NMR spectrum
   Ute Becker             : Parallelization
   Giovanni Bistoni       : ED, misc. LED, open-shell LED, HFLD
   Martin Brehm           : Molecular dynamics
   Dmytro Bykov           : SCF Hessian
   Vijay G. Chilkuri      : MRCI spin determinant printing, contributions to CSF-ICE
   Dipayan Datta          : RHF DLPNO-CCSD density
   Achintya Kumar Dutta   : EOM-CC, STEOM-CC
   Dmitry Ganyushin       : Spin-Orbit,Spin-Spin,Magnetic field MRCI
   Miquel Garcia          : C-PCM and meta-GGA Hessian, CC/C-PCM, Gaussian charge scheme
   Yang Guo               : DLPNO-NEVPT2, F12-NEVPT2, CIM, IAO-localization
   Andreas Hansen         : Spin unrestricted coupled pair/coupled cluster methods
   Benjamin Helmich-Paris : MC-RPA, TRAH-SCF, COSX integrals
   Lee Huntington         : MR-EOM, pCC
   Robert Izsak           : Overlap fitted RIJCOSX, COSX-SCS-MP3, EOM
   Marcus Kettner         : VPT2
   Christian Kollmar      : KDIIS, OOCD, Brueckner-CCSD(T), CCSD density, CASPT2, CASPT2-K
   Simone Kossmann        : Meta GGA functionals, TD-DFT gradient, OOMP2, MP2 Hessian
   Martin Krupicka        : Initial AUTO-CI
   Lucas Lang             : DCDCAS
   Marvin Lechner         : AUTO-CI (C++ implementation), FIC-MRCC
   Dagmar Lenk            : GEPOL surface, SMD
   Dimitrios Liakos       : Extrapolation schemes; Compound Job, initial MDCI parallelization
   Dimitrios Manganas     : Further ROCIS development; embedding schemes
   Dimitrios Pantazis     : SARC Basis sets
   Anastasios Papadopoulos: AUTO-CI, single reference methods and gradients
   Taras Petrenko         : DFT Hessian,TD-DFT gradient, ASA, ECA, R-Raman, ABS, FL, XAS/XES, NRVS
   Peter Pinski           : DLPNO-MP2, DLPNO-MP2 Gradient
   Christoph Reimann      : Effective Core Potentials
   Marius Retegan         : Local ZFS, SOC
   Christoph Riplinger    : Optimizer, TS searches, QM/MM, DLPNO-CCSD(T), (RO)-DLPNO pert. Triples
   Tobias Risthaus        : Range-separated hybrids, TD-DFT gradient, RPA, STAB
   Michael Roemelt        : Original ROCIS implementation
   Masaaki Saitow         : Open-shell DLPNO-CCSD energy and density
   Barbara Sandhoefer     : DKH picture change effects
   Avijit Sen             : IP-ROCIS
   Kantharuban Sivalingam : CASSCF convergence, NEVPT2, FIC-MRCI
   Bernardo de Souza      : ESD, SOC TD-DFT
   Georgi Stoychev        : AutoAux, RI-MP2 NMR, DLPNO-MP2 response
   Willem Van den Heuvel  : Paramagnetic NMR
   Boris Wezisla          : Elementary symmetry handling
   Frank Wennmohs         : Technical directorship


 We gratefully acknowledge several colleagues who have allowed us to
 interface, adapt or use parts of their codes:
   Stefan Grimme, W. Hujo, H. Kruse, P. Pracht,  : VdW corrections, initial TS optimization,
                  C. Bannwarth, S. Ehlert          DFT functionals, gCP, sTDA/sTD-DF
   Ed Valeev, F. Pavosevic, A. Kumar             : LibInt (2-el integral package), F12 methods
   Garnet Chan, S. Sharma, J. Yang, R. Olivares  : DMRG
   Ulf Ekstrom                                   : XCFun DFT Library
   Mihaly Kallay                                 : mrcc  (arbitrary order and MRCC methods)
   Jiri Pittner, Ondrej Demel                    : Mk-CCSD
   Frank Weinhold                                : gennbo (NPA and NBO analysis)
   Christopher J. Cramer and Donald G. Truhlar   : smd solvation model
   Lars Goerigk                                  : TD-DFT with DH, B97 family of functionals
   V. Asgeirsson, H. Jonsson                     : NEB implementation
   FAccTs GmbH                                   : IRC, NEB, NEB-TS, DLPNO-Multilevel, CI-OPT
                                                   MM, QMMM, 2- and 3-layer-ONIOM, Crystal-QMMM,
                                                   LR-CPCM, SF, NACMEs, symmetry and pop. for TD-DFT,
                                                   nearIR, NL-DFT gradient (VV10), updates on ESD,
                                                   ML-optimized integration grids
   S Lehtola, MJT Oliveira, MAL Marques          : LibXC Library
   Liviu Ungur et al                             : ANISO software


 Your calculation uses the libint2 library for the computation of 2-el integrals
 For citations please refer to: http://libint.valeyev.net

 Your ORCA version has been built with support for libXC version: 5.1.0
 For citations please refer to: https://tddft.org/programs/libxc/

 This ORCA versions uses:
   CBLAS   interface :  Fast vector & matrix operations
   LAPACKE interface :  Fast linear algebra routines
   SCALAPACK package :  Parallel linear algebra routines
   Shared memory     :  Shared parallel matrices
   BLAS/LAPACK       :  OpenBLAS 0.3.15  USE64BITINT DYNAMIC_ARCH NO_AFFINITY Zen SINGLE_THREADED
        Core in use  :  Zen
   Copyright (c) 2011-2014, The OpenBLAS Project


Your calculation utilizes the atom-pairwise dispersion correction
with the Becke-Johnson damping scheme (D3BJ)
Cite in your paper:
S.Grimme, S.Ehrlich, L.Goerigk, J Comput Chem, (2011), 32, 1456–1465 
S.Grimme, J.Antony, S.Ehrlich and H.Krieg, J.Chem.Phys., 132, (2010), 154104 
   

Your calculation employs the composite approach B97-3c by Grimme and coworkers.
For the correct reference, please check the publication list of the Grimme group:
http://www.thch.uni-bonn.de/tc/index.php?section=publikationen&subsection=grimme#2017
   

XCFun DFT library Copyright 2009-2010 Ulf Ekstrom and contributors.
See http://admol.org/xcfun for more information.
This is free software; see the source code for copying conditions.
There is ABSOLUTELY NO WARRANTY; not even for MERCHANTABILITY or FITNESS FOR A PARTICULAR PURPOSE.
For details see the documentation.
Scientific users of this library should cite U. Ekstrom, L. Visscher, R. Bast, A. J. Thorvaldsen and K. Ruud;
J.Chem.Theor.Comp. 2010, DOI: 10.1021/ct100117s
XCFun Version 0.99 

================================================================================

----- Orbital basis set information -----
Your calculation utilizes the basis: def2-SVP
   F. Weigend and R. Ahlrichs, Phys. Chem. Chem. Phys. 7, 3297 (2005).

The basis set includes atom-specific modifications.

Your calculation utilizes the basis: def2-TZVP
   F. Weigend and R. Ahlrichs, Phys. Chem. Chem. Phys. 7, 3297 (2005).

Your calculation utilizes the basis: STO-3G
   H-Ne       : W. J. Hehre, R. F. Stewart and J. A. Pople, J. Chem. Phys. 2657 (1969).
   Na-Ar      : W. J. Hehre, R. Ditchfield, R. F. Stewart and J. A. Pople, J. Chem. Phys. 2769 (1970).
   K,Ca,Ga-Kr : W. J. Pietro, B. A. Levy, W. J. Hehre and R. F. Stewart, J. Am. Chem. Soc. 19, 2225 (1980).
   Sc-Zn,Y-Cd : W. J. Pietro and W. J. Hehre, J. Comp. Chem. 4, 241 (1983).

----- AuxJ basis set information -----
Your calculation utilizes the basis: def2-mTZVP/J
================================================================================
                                        WARNINGS
                       Please study these warnings very carefully!
================================================================================

WARNING: Old DensityContainer found on disk!
         Will remove this file - 
         If you want to keep old densities, please start your calculation with a different basename. 


WARNING: Geometry Optimization
  ===> : Switching off AutoStart
         For restart on a previous wavefunction, please use MOREAD

INFO   : the flag for use of the SHARK integral package has been found!

================================================================================
                                       INPUT FILE
================================================================================
NAME = /scratch/negishi/li1724/Test-CentralizedCode-4-5/DFT/CWMHSQPVYVHHDK-QJPJQTDYNZXKQF_0_1/CWMHSQPVYVHHDK-QJPJQTDYNZXKQF_0_1-TSOPT.in
|  1> ! B97-3c def2-SVP CPCM(DMSO) defgrid2 OptTS Freq
|  2> 
|  3> %scf
|  4>   MaxIter 500
|  5> end
|  6> 
|  7> %pal
|  8>   nproc 32
|  9> end
| 10> 
| 11> %maxcore 7200
| 12> 
| 13> %geom
| 14>   Calc_Hess true
| 15>   Recalc_Hess 3
| 16> end
| 17> 
| 18> %base "CWMHSQPVYVHHDK-QJPJQTDYNZXKQF_0_1-TSOPT"
| 19> 
| 20> *xyz -1 1
| 21> Br   0.16897008   3.14978228  -0.91400044 newgto "def2-TZVP" end
| 22> C   -2.47005733  -1.09942999  -1.56420612 
| 23> C   -4.14859774  -2.16452789  -0.11554855 
| 24> C    3.38095437  -2.18371824  -0.77680941 
| 25> C    0.93979572  -1.95448307  -0.86316850 
| 26> C   -3.13680719  -2.53116525   0.75070080 
| 27> C    0.85308726  -3.35288114  -0.96483758 
| 28> C   -1.41784068  -1.48007351  -0.64244782 
| 29> C    3.26350502  -3.57794582  -0.87481357 
| 30> C   -2.17561231  -0.41204658  -2.76548363 
| 31> C   -3.83702453  -1.43183403  -1.28897636 
| 32> C    2.24595687  -1.34426049  -0.76353085 
| 33> C   -1.77918631  -2.19593231   0.52881232 
| 34> C    1.99717622  -4.16558939  -0.96943366 
| 35> C   -5.97813679   0.76295134   1.22555347 
| 36> C   -3.69470038   1.68643253  -0.16855332 
| 37> C   -3.67088199   1.36330806   1.19728266 
| 38> C   -3.17289689  -0.02561948  -3.64447551 
| 39> C   -4.84323924  -1.01770697  -2.20241125 
| 40> C   -2.53809694   2.13928132  -0.80234054 
| 41> C   -2.47457835   1.52148896   1.92314272 
| 42> C   -1.36623807   2.26280752  -0.07041952 newgto "def2-TZVP" end
| 43> C   -1.32604052   1.99077302   1.29556310 
| 44> C   -0.81913314  -3.83886705   2.15858466 
| 45> C   -0.79760058  -2.55955605   1.57332807 
| 46> C   -4.52391218  -0.32143780  -3.35358113 
| 47> C    3.48454557   0.69338481  -0.80807577 
| 48> C    4.02518055   0.80667373  -2.10873276 
| 49> C    4.25126523   0.58351820   3.98875255 
| 50> C    4.63636630   0.65773563   2.64673489 
| 51> C    2.98545377   1.02859407   4.37920384 
| 52> C    3.76356874   1.17050445   1.67302732 
| 53> C    4.20388213   1.29133658   0.26428849 
| 54> C    0.09126606  -4.19435404   3.15743208 
| 55> C    5.20696309   1.49803417  -2.36277423 
| 56> C    0.16296007  -1.64171006   2.03669838 
| 57> C    2.11318874   1.54322707   3.41394964 
| 58> C    2.50059063   1.60499344   2.08332013 newgto "def2-TZVP" end
| 59> C    5.39989863   1.97890836  -0.00926405 
| 60> C    5.90580808   2.09438067  -1.30447618 
| 61> C    1.04937763  -3.27486834   3.59522860 
| 62> C    1.07526572  -1.99374159   3.03022888 
| 63> Cu   0.47042226   0.75085628  -0.74706262 newgto "def2-TZVP" end
| 64> H   -1.13306406  -0.17668388  -2.97752422 newgto "STO-3G" end
| 65> H   -6.68056543   0.38018571   1.97267603 newgto "STO-3G" end
| 66> H   -5.18620851  -2.42019466   0.09978611 newgto "STO-3G" end
| 67> H    4.36770811  -1.72699479  -0.69118692 newgto "STO-3G" end
| 68> H   -0.13472303  -3.80737150  -1.04953471 newgto "STO-3G" end
| 69> H   -3.39058622  -3.06150440   1.66999793 newgto "STO-3G" end
| 70> H    4.16274493  -4.19701302  -0.87182131 newgto "STO-3G" end
| 71> H   -6.34138790   1.72854866   0.84577209 newgto "STO-3G" end
| 72> H   -1.54436102  -4.57346770   1.80653790 newgto "STO-3G" end
| 73> H   -4.59679912   1.56635818  -0.76142102 newgto "STO-3G" end
| 74> H   -2.55534916   2.37524435  -1.86279934 newgto "STO-3G" end
| 75> H   -2.45669337   1.28187146   2.98510757 newgto "STO-3G" end
| 76> H    1.89119231  -5.24865489  -1.05200515 newgto "STO-3G" end
| 77> H   -2.91689747   0.50860989  -4.56038694 newgto "STO-3G" end
| 78> H    3.47773373   0.33392950  -2.92569607 newgto "STO-3G" end
| 79> H   -5.89932482   0.04394887   0.39940411 newgto "STO-3G" end
| 80> H   -5.88315754  -1.25847084  -1.97518068 newgto "STO-3G" end
| 81> H   -0.41430364   2.14137311   1.86624377 newgto "STO-3G" end
| 82> H    4.94137417   0.17522737   4.72817468 newgto "STO-3G" end
| 83> H    5.62362567   0.30642814   2.34409409 newgto "STO-3G" end
| 84> H   -5.31147307  -0.00953991  -4.04126155 newgto "STO-3G" end
| 85> H    2.67928148   0.97332008   5.42446104 newgto "STO-3G" end
| 86> H    0.05917150  -5.19762111   3.58510909 newgto "STO-3G" end
| 87> H    0.20198701  -0.64522615   1.59843739 newgto "STO-3G" end
| 88> H    5.58189746   1.57755693  -3.38477093 newgto "STO-3G" end
| 89> H    1.12419422   1.89861063   3.70419286 newgto "STO-3G" end
| 90> H    1.82686196   2.01504523   1.33726170 newgto "STO-3G" end
| 91> H    5.93725460   2.43764315   0.82246708 newgto "STO-3G" end
| 92> H    6.82902704   2.64515578  -1.48654420 newgto "STO-3G" end
| 93> H    1.76886775  -3.55196706   4.36697531 newgto "STO-3G" end
| 94> H    1.81005995  -1.26022058   3.36416353 newgto "STO-3G" end
| 95> N   -0.13696376  -1.09889124  -0.94007761 newgto "def2-TZVP" end
| 96> N    2.28820432   0.01653948  -0.61542370 newgto "def2-TZVP" end
| 97> O   -4.73432836   0.91169627   1.89402618 
| 98> *
| 99> 
|100>                          ****END OF INPUT****
================================================================================

                       *****************************
                       * Geometry Optimization Run *
                       *****************************

Geometry optimization settings:
Update method            Update   .... Bofill
Choice of coordinates    CoordSys .... Z-matrix Internals
Initial Hessian          InHess   .... Almoef's Model

Convergence Tolerances:
Energy Change            TolE     ....  5.0000e-06 Eh
Max. Gradient            TolMAXG  ....  3.0000e-04 Eh/bohr
RMS Gradient             TolRMSG  ....  1.0000e-04 Eh/bohr
Max. Displacement        TolMAXD  ....  4.0000e-03 bohr
RMS Displacement         TolRMSD  ....  2.0000e-03 bohr
Strict Convergence                ....  False
------------------------------------------------------------------------------
                        ORCA OPTIMIZATION COORDINATE SETUP
------------------------------------------------------------------------------

The optimization will be done in new redundant internal coordinates
Making redundant internal coordinates   ...  (new redundants) done
Following TS mode number                ...     0
Evaluating the initial hessian          ...  (Is done on the fly) done
Evaluating the coordinates              ...  done
Calculating the B-matrix                .... done
Calculating the G-matrix                .... done
Diagonalizing the G-matrix              .... done
Small eigenvalue found = 2.110e-03
Small eigenvalue found = 4.633e-03
Small eigenvalue found = 5.937e-03
Small eigenvalue found = 8.152e-03
Small eigenvalue found = 9.408e-03
Small eigenvalue found = 1.147e-02
Small eigenvalue found = 1.745e-02
Small eigenvalue found = 2.206e-02
Small eigenvalue found = 2.359e-02
The first mode is                       ....  295
The number of degrees of freedom        ....  225

    -----------------------------------------------------------------
                    Redundant Internal Coordinates


    -----------------------------------------------------------------
         Definition                    Initial Value    d2E/dq (diagonal element)
    -----------------------------------------------------------------
      1. B(C   5,C   2)                  1.3815         0.000000   
      2. B(C   6,C   4)                  1.4048         0.000000   
      3. B(C   7,C   1)                  1.4497         0.000000   
      4. B(C   8,C   3)                  1.4026         0.000000   
      5. B(C   9,C   1)                  1.4150         0.000000   
      6. B(C  10,C   2)                  1.4180         0.000000   
      7. B(C  10,C   1)                  1.4335         0.000000   
      8. B(C  11,C   4)                  1.4451         0.000000   
      9. B(C  11,C   3)                  1.4118         0.000000   
     10. B(C  12,C   7)                  1.4195         0.000000   
     11. B(C  12,C   5)                  1.4159         0.000000   
     12. B(C  13,C   8)                  1.3992         0.000000   
     13. B(C  13,C   6)                  1.4034         0.000000   
     14. B(C  16,C  15)                  1.4037         0.000000   
     15. B(C  17,C   9)                  1.3844         0.000000   
     16. B(C  18,C  10)                  1.4207         0.000000   
     17. B(C  19,C  15)                  1.3944         0.000000   
     18. B(C  20,C  16)                  1.4082         0.000000   
     19. B(C  21,Br  0)                  1.9635         0.000000   
     20. B(C  21,C  19)                  1.3872         0.000000   
     21. B(C  22,C  20)                  1.3904         0.000000   
     22. B(C  22,C  21)                  1.3934         0.000000   
     23. B(C  24,C  23)                  1.4070         0.000000   
     24. B(C  24,C  12)                  1.4788         0.000000   
     25. B(C  25,C  18)                  1.3827         0.000000   
     26. B(C  25,C  17)                  1.4133         0.000000   
     27. B(C  27,C  26)                  1.4131         0.000000   
     28. B(C  29,C  28)                  1.3981         0.000000   
     29. B(C  30,C  28)                  1.3974         0.000000   
     30. B(C  31,C  29)                  1.4046         0.000000   
     31. B(C  32,C  26)                  1.4230         0.000000   
     32. B(C  32,C  31)                  1.4809         0.000000   
     33. B(C  33,C  23)                  1.3975         0.000000   
     34. B(C  34,C  27)                  1.3925         0.000000   
     35. B(C  35,C  24)                  1.4071         0.000000   
     36. B(C  36,C  30)                  1.3991         0.000000   
     37. B(C  37,C  36)                  1.3873         0.000000   
     38. B(C  37,C  31)                  1.3972         0.000000   
     39. B(C  38,C  32)                  1.4064         0.000000   
     40. B(C  39,C  38)                  1.3953         0.000000   
     41. B(C  39,C  34)                  1.4014         0.000000   
     42. B(C  40,C  33)                  1.3982         0.000000   
     43. B(C  41,C  35)                  1.3940         0.000000   
     44. B(C  41,C  40)                  1.4004         0.000000   
     45. B(Cu 42,C  21)                  2.4733         0.000000   
     46. B(Cu 42,C  11)                  2.7463         0.000000   
     47. B(Cu 42,C   4)                  2.7482         0.000000   
     48. B(Cu 42,Br  0)                  2.4235         0.000000   
     49. B(H  43,C   9)                  1.0896         0.000000   
     50. B(H  44,C  14)                  1.0946         0.000000   
     51. B(H  45,C   2)                  1.0901         0.000000   
     52. B(H  46,C   3)                  1.0907         0.000000   
     53. B(H  47,C   6)                  1.0906         0.000000   
     54. B(H  48,C   5)                  1.0912         0.000000   
     55. B(H  49,C   8)                  1.0917         0.000000   
     56. B(H  50,C  14)                  1.0993         0.000000   
     57. B(H  51,C  23)                  1.0907         0.000000   
     58. B(H  52,C  15)                  1.0861         0.000000   
     59. B(H  53,C  19)                  1.0865         0.000000   
     60. B(H  54,C  20)                  1.0888         0.000000   
     61. B(H  55,C  13)                  1.0914         0.000000   
     62. B(H  56,C  17)                  1.0908         0.000000   
     63. B(H  57,C  27)                  1.0912         0.000000   
     64. B(H  58,H  45)                  2.5827         0.000000   
     65. B(H  58,C  14)                  1.0980         0.000000   
     66. B(H  59,C  18)                  1.0913         0.000000   
     67. B(H  60,C  22)                  1.0861         0.000000   
     68. B(H  61,C  28)                  1.0907         0.000000   
     69. B(H  62,C  29)                  1.0907         0.000000   
     70. B(H  63,H  52)                  3.7083         0.000000   
     71. B(H  63,C  25)                  1.0911         0.000000   
     72. B(H  64,C  30)                  1.0906         0.000000   
     73. B(H  65,C  33)                  1.0911         0.000000   
     74. B(H  66,C  35)                  1.0893         0.000000   
     75. B(H  67,C  34)                  1.0915         0.000000   
     76. B(H  68,H  54)                  3.7041         0.000000   
     77. B(H  68,C  36)                  1.0903         0.000000   
     78. B(H  69,C  37)                  1.0857         0.000000   
     79. B(H  70,C  38)                  1.0913         0.000000   
     80. B(H  71,C  39)                  1.0903         0.000000   
     81. B(H  72,C  40)                  1.0909         0.000000   
     82. B(H  73,C  30)                  2.7660         0.000000   
     83. B(H  73,C  41)                  1.0906         0.000000   
     84. B(N  74,Cu 42)                  1.9565         0.000000   
     85. B(N  74,C   7)                  1.3691         0.000000   
     86. B(N  74,C   4)                  1.3774         0.000000   
     87. B(N  75,Cu 42)                  1.9649         0.000000   
     88. B(N  75,C  26)                  1.3880         0.000000   
     89. B(N  75,C  11)                  1.3695         0.000000   
     90. B(O  76,C  16)                  1.3492         0.000000   
     91. B(O  76,C  14)                  1.4199         0.000000   
     92. A(C  21,Br  0,Cu 42)           67.6980         0.000000   
     93. A(C   7,C   1,C   9)          121.0841         0.000000   
     94. A(C   9,C   1,C  10)          118.2994         0.000000   
     95. A(C   7,C   1,C  10)          120.6085         0.000000   
     96. A(C   5,C   2,C  10)          119.6748         0.000000   
     97. A(C  10,C   2,H  45)          119.5889         0.000000   
     98. A(C   5,C   2,H  45)          120.7308         0.000000   
     99. A(C   8,C   3,H  46)          119.8342         0.000000   
    100. A(C  11,C   3,H  46)          118.5294         0.000000   
    101. A(C   8,C   3,C  11)          121.6282         0.000000   
    102. A(C  11,C   4,N  74)          116.6221         0.000000   
    103. A(C   6,C   4,N  74)          124.4742         0.000000   
    104. A(Cu 42,C   4,N  74)           42.0463         0.000000   
    105. A(C  11,C   4,Cu 42)           74.6793         0.000000   
    106. A(C   6,C   4,C  11)          118.7593         0.000000   
    107. A(C   6,C   4,Cu 42)          166.5204         0.000000   
    108. A(C  12,C   5,H  48)          118.0397         0.000000   
    109. A(C   2,C   5,C  12)          122.7617         0.000000   
    110. A(C   2,C   5,H  48)          119.1370         0.000000   
    111. A(C  13,C   6,H  47)          119.7882         0.000000   
    112. A(C   4,C   6,H  47)          118.4475         0.000000   
    113. A(C   4,C   6,C  13)          121.7626         0.000000   
    114. A(C   1,C   7,N  74)          117.8852         0.000000   
    115. A(C   1,C   7,C  12)          118.1831         0.000000   
    116. A(C  12,C   7,N  74)          123.9132         0.000000   
    117. A(C   3,C   8,C  13)          119.8663         0.000000   
    118. A(C  13,C   8,H  49)          120.4961         0.000000   
    119. A(C   3,C   8,H  49)          119.6369         0.000000   
    120. A(C  17,C   9,H  43)          120.3585         0.000000   
    121. A(C   1,C   9,C  17)          121.6495         0.000000   
    122. A(C   1,C   9,H  43)          117.9847         0.000000   
    123. A(C   1,C  10,C  18)          118.9705         0.000000   
    124. A(C   2,C  10,C  18)          121.8057         0.000000   
    125. A(C   1,C  10,C   2)          119.2238         0.000000   
    126. A(C   4,C  11,Cu 42)           74.8233         0.000000   
    127. A(C   3,C  11,Cu 42)          166.7661         0.000000   
    128. A(C   4,C  11,N  75)          117.0602         0.000000   
    129. A(Cu 42,C  11,N  75)           42.3754         0.000000   
    130. A(C   3,C  11,N  75)          124.5454         0.000000   
    131. A(C   3,C  11,C   4)          118.3540         0.000000   
    132. A(C   5,C  12,C   7)          119.5250         0.000000   
    133. A(C   7,C  12,C  24)          122.5386         0.000000   
    134. A(C   5,C  12,C  24)          117.8758         0.000000   
    135. A(C   6,C  13,C   8)          119.6284         0.000000   
    136. A(C   6,C  13,H  55)          119.7215         0.000000   
    137. A(C   8,C  13,H  55)          120.6494         0.000000   
    138. A(H  50,C  14,H  58)          109.8120         0.000000   
    139. A(H  44,C  14,H  58)          109.3071         0.000000   
    140. A(H  44,C  14,H  50)          109.3235         0.000000   
    141. A(H  44,C  14,O  76)          106.1076         0.000000   
    142. A(H  58,C  14,O  76)          111.0966         0.000000   
    143. A(H  50,C  14,O  76)          111.1051         0.000000   
    144. A(C  16,C  15,H  52)          121.3159         0.000000   
    145. A(C  19,C  15,H  52)          118.4702         0.000000   
    146. A(C  16,C  15,C  19)          120.1930         0.000000   
    147. A(C  15,C  16,C  20)          119.3466         0.000000   
    148. A(C  15,C  16,O  76)          124.4820         0.000000   
    149. A(C  20,C  16,O  76)          116.1687         0.000000   
    150. A(C   9,C  17,C  25)          119.9687         0.000000   
    151. A(C  25,C  17,H  56)          119.9797         0.000000   
    152. A(C   9,C  17,H  56)          120.0515         0.000000   
    153. A(C  10,C  18,C  25)          121.2316         0.000000   
    154. A(C  25,C  18,H  59)          120.2974         0.000000   
    155. A(C  10,C  18,H  59)          118.4707         0.000000   
    156. A(C  21,C  19,H  53)          120.6008         0.000000   
    157. A(C  15,C  19,H  53)          120.0634         0.000000   
    158. A(C  15,C  19,C  21)          119.3274         0.000000   
    159. A(C  16,C  20,C  22)          120.4644         0.000000   
    160. A(C  22,C  20,H  54)          120.0626         0.000000   
    161. A(C  16,C  20,H  54)          119.4706         0.000000   
    162. A(Br  0,C  21,Cu 42)           65.0382         0.000000   
    163. A(C  19,C  21,C  22)          121.6176         0.000000   
    164. A(Br  0,C  21,C  22)          119.1321         0.000000   
    165. A(Br  0,C  21,C  19)          118.2982         0.000000   
    166. A(C  22,C  21,Cu 42)           97.3210         0.000000   
    167. A(C  19,C  21,Cu 42)          115.3755         0.000000   
    168. A(C  20,C  22,C  21)          118.9831         0.000000   
    169. A(C  20,C  22,H  60)          120.2030         0.000000   
    170. A(C  21,C  22,H  60)          120.8139         0.000000   
    171. A(C  33,C  23,H  51)          119.5095         0.000000   
    172. A(C  24,C  23,H  51)          119.2308         0.000000   
    173. A(C  24,C  23,C  33)          121.2411         0.000000   
    174. A(C  12,C  24,C  23)          120.4799         0.000000   
    175. A(C  23,C  24,C  35)          117.8126         0.000000   
    176. A(C  12,C  24,C  35)          121.6923         0.000000   
    177. A(C  17,C  25,C  18)          119.8362         0.000000   
    178. A(C  17,C  25,H  63)          120.0302         0.000000   
    179. A(C  18,C  25,H  63)          120.1308         0.000000   
    180. A(C  32,C  26,N  75)          122.4134         0.000000   
    181. A(C  27,C  26,N  75)          119.7766         0.000000   
    182. A(C  27,C  26,C  32)          117.8099         0.000000   
    183. A(C  34,C  27,H  57)          120.2847         0.000000   
    184. A(C  26,C  27,H  57)          117.5458         0.000000   
    185. A(C  26,C  27,C  34)          122.1684         0.000000   
    186. A(C  30,C  28,H  61)          120.1932         0.000000   
    187. A(C  29,C  28,H  61)          119.7554         0.000000   
    188. A(C  29,C  28,C  30)          120.0513         0.000000   
    189. A(C  31,C  29,H  62)          119.1885         0.000000   
    190. A(C  28,C  29,H  62)          119.9033         0.000000   
    191. A(C  28,C  29,C  31)          120.9062         0.000000   
    192. A(C  36,C  30,H  64)          120.3223         0.000000   
    193. A(C  28,C  30,H  64)          120.3946         0.000000   
    194. A(C  28,C  30,C  36)          119.2829         0.000000   
    195. A(C  32,C  31,C  37)          121.5157         0.000000   
    196. A(C  29,C  31,C  37)          118.1414         0.000000   
    197. A(C  29,C  31,C  32)          120.2979         0.000000   
    198. A(C  31,C  32,C  38)          118.5394         0.000000   
    199. A(C  26,C  32,C  38)          119.2571         0.000000   
    200. A(C  26,C  32,C  31)          122.1601         0.000000   
    201. A(C  40,C  33,H  65)          120.1387         0.000000   
    202. A(C  23,C  33,H  65)          119.6636         0.000000   
    203. A(C  23,C  33,C  40)          120.1929         0.000000   
    204. A(C  39,C  34,H  67)          120.3163         0.000000   
    205. A(C  27,C  34,H  67)          119.9011         0.000000   
    206. A(C  27,C  34,C  39)          119.7818         0.000000   
    207. A(C  41,C  35,H  66)          119.6240         0.000000   
    208. A(C  24,C  35,H  66)          119.2548         0.000000   
    209. A(C  24,C  35,C  41)          121.1140         0.000000   
    210. A(C  37,C  36,H  68)          119.6143         0.000000   
    211. A(C  30,C  36,H  68)          120.1184         0.000000   
    212. A(C  30,C  36,C  37)          120.2673         0.000000   
    213. A(C  36,C  37,H  69)          120.1763         0.000000   
    214. A(C  31,C  37,H  69)          118.4638         0.000000   
    215. A(C  31,C  37,C  36)          121.3486         0.000000   
    216. A(C  39,C  38,H  70)          119.6136         0.000000   
    217. A(C  32,C  38,H  70)          118.4239         0.000000   
    218. A(C  32,C  38,C  39)          121.9613         0.000000   
    219. A(C  38,C  39,H  71)          120.2530         0.000000   
    220. A(C  34,C  39,H  71)          120.7363         0.000000   
    221. A(C  34,C  39,C  38)          119.0102         0.000000   
    222. A(C  41,C  40,H  72)          120.3712         0.000000   
    223. A(C  33,C  40,H  72)          120.4244         0.000000   
    224. A(C  33,C  40,C  41)          119.2044         0.000000   
    225. A(C  40,C  41,H  73)          120.2779         0.000000   
    226. A(C  35,C  41,H  73)          119.2939         0.000000   
    227. A(C  35,C  41,C  40)          120.4281         0.000000   
    228. A(C   4,Cu 42,C  11)           30.4974         0.000000   
    229. A(Br  0,Cu 42,C  11)          146.6296         0.000000   
    230. A(Br  0,Cu 42,C   4)          173.0886         0.000000   
    231. A(N  74,Cu 42,N  75)           86.5880         0.000000   
    232. A(C  21,Cu 42,N  75)          153.7822         0.000000   
    233. A(C  11,Cu 42,N  75)           28.0180         0.000000   
    234. A(C   4,Cu 42,N  75)           58.4624         0.000000   
    235. A(Br  0,Cu 42,N  75)          119.3145         0.000000   
    236. A(C  21,Cu 42,N  74)          111.9883         0.000000   
    237. A(C  11,Cu 42,N  74)           58.5906         0.000000   
    238. A(C  11,Cu 42,C  21)          161.4591         0.000000   
    239. A(C   4,Cu 42,N  74)           28.1333         0.000000   
    240. A(Br  0,Cu 42,N  74)          152.9285         0.000000   
    241. A(C   4,Cu 42,C  21)          137.7454         0.000000   
    242. A(Br  0,Cu 42,C  21)           47.2638         0.000000   
    243. A(C   7,N  74,Cu 42)          122.1555         0.000000   
    244. A(C   4,N  74,Cu 42)          109.8204         0.000000   
    245. A(C   4,N  74,C   7)          123.1098         0.000000   
    246. A(C  26,N  75,Cu 42)          127.2902         0.000000   
    247. A(C  11,N  75,Cu 42)          109.6066         0.000000   
    248. A(C  11,N  75,C  26)          119.7447         0.000000   
    249. A(C  14,O  76,C  16)          118.8429         0.000000   
    250. D(H  48,C   5,C   2,H  45)     -1.4614         0.000000   
    251. D(C  12,C   5,C   2,H  45)   -178.5481         0.000000   
    252. D(C  12,C   5,C   2,C  10)      0.5952         0.000000   
    253. D(H  48,C   5,C   2,C  10)    177.6818         0.000000   
    254. D(C  13,C   6,C   4,N  74)    175.5923         0.000000   
    255. D(H  47,C   6,C   4,N  74)     -3.9387         0.000000   
    256. D(H  47,C   6,C   4,C  11)   -179.4144         0.000000   
    257. D(C  13,C   6,C   4,Cu 42)    175.4032         0.000000   
    258. D(C  13,C   6,C   4,C  11)      0.1166         0.000000   
    259. D(H  47,C   6,C   4,Cu 42)     -4.1278         0.000000   
    260. D(C  12,C   7,C   1,C  10)      0.4441         0.000000   
    261. D(N  74,C   7,C   1,C  10)   -178.0552         0.000000   
    262. D(N  74,C   7,C   1,C   9)      2.9866         0.000000   
    263. D(C  12,C   7,C   1,C   9)   -178.5141         0.000000   
    264. D(C  13,C   8,C   3,H  46)    179.2773         0.000000   
    265. D(H  49,C   8,C   3,H  46)     -0.4323         0.000000   
    266. D(C  13,C   8,C   3,C  11)      0.3372         0.000000   
    267. D(H  49,C   8,C   3,C  11)   -179.3724         0.000000   
    268. D(H  43,C   9,C   1,C  10)   -178.9953         0.000000   
    269. D(C  17,C   9,C   1,C  10)      1.9847         0.000000   
    270. D(H  43,C   9,C   1,C   7)     -0.0137         0.000000   
    271. D(C  17,C   9,C   1,C   7)   -179.0336         0.000000   
    272. D(C  18,C  10,C   2,C   5)   -179.2280         0.000000   
    273. D(C   2,C  10,C   1,C   9)    177.6513         0.000000   
    274. D(C  18,C  10,C   1,C   7)    178.7150         0.000000   
    275. D(C  18,C  10,C   2,H  45)     -0.0749         0.000000   
    276. D(C  18,C  10,C   1,C   9)     -2.2983         0.000000   
    277. D(C   2,C  10,C   1,C   7)     -1.3354         0.000000   
    278. D(C   1,C  10,C   2,C   5)      0.8239         0.000000   
    279. D(C   1,C  10,C   2,H  45)    179.9770         0.000000   
    280. D(C   4,C  11,C   3,H  46)   -179.3647         0.000000   
    281. D(C   4,C  11,C   3,C   8)     -0.4112         0.000000   
    282. D(N  75,C  11,C   4,N  74)      6.5604         0.000000   
    283. D(C   3,C  11,C   4,N  74)   -175.6458         0.000000   
    284. D(N  75,C  11,C   3,C   8)    177.2035         0.000000   
    285. D(N  75,C  11,C   4,Cu 42)      3.5269         0.000000   
    286. D(N  75,C  11,C   4,C   6)   -177.6111         0.000000   
    287. D(Cu 42,C  11,C   4,C   6)    178.8620         0.000000   
    288. D(Cu 42,C  11,C   4,N  74)      3.0335         0.000000   
    289. D(C   3,C  11,C   4,Cu 42)   -178.6793         0.000000   
    290. D(N  75,C  11,C   3,H  46)     -1.7501         0.000000   
    291. D(C   3,C  11,C   4,C   6)      0.1828         0.000000   
    292. D(Cu 42,C  11,C   3,C   8)   -174.8348         0.000000   
    293. D(Cu 42,C  11,C   3,H  46)      6.2116         0.000000   
    294. D(C  24,C  12,C   5,C   2)    175.7396         0.000000   
    295. D(C   5,C  12,C   7,C   1)      0.9384         0.000000   
    296. D(C  24,C  12,C   7,N  74)      2.2334         0.000000   
    297. D(C  24,C  12,C   7,C   1)   -176.1682         0.000000   
    298. D(C  24,C  12,C   5,H  48)     -1.3773         0.000000   
    299. D(C   5,C  12,C   7,N  74)    179.3400         0.000000   
    300. D(C   7,C  12,C   5,H  48)   -178.6180         0.000000   
    301. D(C   7,C  12,C   5,C   2)     -1.5011         0.000000   
    302. D(H  55,C  13,C   8,C   3)    179.6476         0.000000   
    303. D(H  55,C  13,C   8,H  49)     -0.6454         0.000000   
    304. D(C   6,C  13,C   8,H  49)    179.6792         0.000000   
    305. D(H  55,C  13,C   6,H  47)     -0.3512         0.000000   
    306. D(C   8,C  13,C   6,H  47)    179.3272         0.000000   
    307. D(C   8,C  13,C   6,C   4)     -0.1976         0.000000   
    308. D(H  55,C  13,C   6,C   4)   -179.8761         0.000000   
    309. D(C   6,C  13,C   8,C   3)     -0.0278         0.000000   
    310. D(O  76,C  16,C  15,C  19)   -179.6236         0.000000   
    311. D(C  20,C  16,C  15,C  19)      1.0052         0.000000   
    312. D(C  20,C  16,C  15,H  52)    179.3173         0.000000   
    313. D(O  76,C  16,C  15,H  52)     -1.3115         0.000000   
    314. D(H  56,C  17,C   9,H  43)      0.6261         0.000000   
    315. D(H  56,C  17,C   9,C   1)    179.6232         0.000000   
    316. D(C  25,C  17,C   9,C   1)     -0.2612         0.000000   
    317. D(C  25,C  17,C   9,H  43)   -179.2582         0.000000   
    318. D(H  59,C  18,C  10,C   2)      1.2101         0.000000   
    319. D(H  59,C  18,C  10,C   1)   -178.8417         0.000000   
    320. D(C  25,C  18,C  10,C   2)   -178.9948         0.000000   
    321. D(C  25,C  18,C  10,C   1)      0.9535         0.000000   
    322. D(H  53,C  19,C  15,H  52)      0.7651         0.000000   
    323. D(H  53,C  19,C  15,C  16)    179.1248         0.000000   
    324. D(C  21,C  19,C  15,H  52)   -178.1807         0.000000   
    325. D(C  21,C  19,C  15,C  16)      0.1790         0.000000   
    326. D(H  54,C  20,C  16,O  76)     -0.0914         0.000000   
    327. D(H  54,C  20,C  16,C  15)    179.3311         0.000000   
    328. D(C  22,C  20,C  16,O  76)   -179.5281         0.000000   
    329. D(C  22,C  20,C  16,C  15)     -0.1056         0.000000   
    330. D(Cu 42,C  21,C  19,H  53)    -64.0244         0.000000   
    331. D(C  22,C  21,C  19,H  53)    178.7420         0.000000   
    332. D(C  22,C  21,C  19,C  15)     -2.3180         0.000000   
    333. D(Br  0,C  21,C  19,H  53)     10.0075         0.000000   
    334. D(Cu 42,C  21,C  19,C  15)    114.9156         0.000000   
    335. D(Br  0,C  21,C  19,C  15)   -171.0525         0.000000   
    336. D(C  22,C  21,Br  0,Cu 42)     84.3461         0.000000   
    337. D(C  19,C  21,Br  0,Cu 42)   -106.6330         0.000000   
    338. D(H  60,C  22,C  21,Cu 42)     57.3045         0.000000   
    339. D(H  60,C  22,C  21,C  19)   -176.7880         0.000000   
    340. D(H  60,C  22,C  21,Br  0)     -8.1449         0.000000   
    341. D(C  20,C  22,C  21,Cu 42)   -122.7080         0.000000   
    342. D(C  20,C  22,C  21,C  19)      3.1995         0.000000   
    343. D(H  60,C  22,C  20,H  54)     -1.3957         0.000000   
    344. D(C  20,C  22,C  21,Br  0)    171.8427         0.000000   
    345. D(C  21,C  22,C  20,H  54)    178.6167         0.000000   
    346. D(C  21,C  22,C  20,C  16)     -1.9500         0.000000   
    347. D(H  60,C  22,C  20,C  16)    178.0377         0.000000   
    348. D(C  12,C  24,C  23,C  33)   -179.2745         0.000000   
    349. D(C  12,C  24,C  23,H  51)      2.3044         0.000000   
    350. D(C  35,C  24,C  23,H  51)   -179.0898         0.000000   
    351. D(C  35,C  24,C  12,C   7)     44.2754         0.000000   
    352. D(C  35,C  24,C  12,C   5)   -132.8765         0.000000   
    353. D(C  23,C  24,C  12,C   7)   -137.1738         0.000000   
    354. D(C  23,C  24,C  12,C   5)     45.6743         0.000000   
    355. D(C  35,C  24,C  23,C  33)     -0.6687         0.000000   
    356. D(C  17,C  25,C  18,H  59)   -179.4155         0.000000   
    357. D(C  18,C  25,C  17,H  56)    178.9574         0.000000   
    358. D(C  18,C  25,C  17,C   9)     -1.1582         0.000000   
    359. D(H  63,C  25,C  17,H  56)     -0.4295         0.000000   
    360. D(H  63,C  25,C  17,C   9)    179.4549         0.000000   
    361. D(H  63,C  25,C  18,C  10)   -179.8207         0.000000   
    362. D(C  17,C  25,C  18,C  10)      0.7930         0.000000   
    363. D(H  63,C  25,C  18,H  59)     -0.0292         0.000000   
    364. D(H  57,C  27,C  26,N  75)     -0.9793         0.000000   
    365. D(H  57,C  27,C  26,C  32)    179.1149         0.000000   
    366. D(C  34,C  27,C  26,N  75)    178.6374         0.000000   
    367. D(C  34,C  27,C  26,C  32)     -1.2684         0.000000   
    368. D(C  31,C  29,C  28,H  61)    179.5547         0.000000   
    369. D(C  31,C  29,C  28,C  30)     -0.3098         0.000000   
    370. D(H  62,C  29,C  28,H  61)      0.0781         0.000000   
    371. D(H  62,C  29,C  28,C  30)   -179.7864         0.000000   
    372. D(H  64,C  30,C  28,H  61)      0.1368         0.000000   
    373. D(H  64,C  30,C  28,C  29)   -179.9993         0.000000   
    374. D(C  36,C  30,C  28,H  61)   -179.7096         0.000000   
    375. D(C  36,C  30,C  28,C  29)      0.1543         0.000000   
    376. D(C  32,C  31,C  29,C  28)    177.6434         0.000000   
    377. D(C  37,C  31,C  29,H  62)    179.5244         0.000000   
    378. D(C  37,C  31,C  29,C  28)      0.0442         0.000000   
    379. D(C  32,C  31,C  29,H  62)     -2.8764         0.000000   
    380. D(C  38,C  32,C  31,C  37)    124.4859         0.000000   
    381. D(C  38,C  32,C  31,C  29)    -53.0308         0.000000   
    382. D(C  26,C  32,C  31,C  37)    -57.9269         0.000000   
    383. D(C  26,C  32,C  31,C  29)    124.5564         0.000000   
    384. D(C  38,C  32,C  26,N  75)   -179.0477         0.000000   
    385. D(C  31,C  32,C  26,N  75)      3.3819         0.000000   
    386. D(C  38,C  32,C  26,C  27)      0.8555         0.000000   
    387. D(C  31,C  32,C  26,C  27)   -176.7149         0.000000   
    388. D(H  65,C  33,C  23,H  51)     -0.8492         0.000000   
    389. D(H  65,C  33,C  23,C  24)   -179.2659         0.000000   
    390. D(C  40,C  33,C  23,H  51)    178.3594         0.000000   
    391. D(C  40,C  33,C  23,C  24)     -0.0574         0.000000   
    392. D(H  67,C  34,C  27,H  57)      0.7015         0.000000   
    393. D(H  67,C  34,C  27,C  26)   -178.9050         0.000000   
    394. D(C  39,C  34,C  27,H  57)   -179.6174         0.000000   
    395. D(C  39,C  34,C  27,C  26)      0.7761         0.000000   
    396. D(H  66,C  35,C  24,C  23)    179.8672         0.000000   
    397. D(H  66,C  35,C  24,C  12)     -1.5449         0.000000   
    398. D(C  41,C  35,C  24,C  23)      0.8506         0.000000   
    399. D(C  41,C  35,C  24,C  12)    179.4385         0.000000   
    400. D(H  68,C  36,C  30,H  64)      0.4398         0.000000   
    401. D(H  68,C  36,C  30,C  28)   -179.7137         0.000000   
    402. D(C  37,C  36,C  30,H  64)   -179.5816         0.000000   
    403. D(C  37,C  36,C  30,C  28)      0.2649         0.000000   
    404. D(H  69,C  37,C  36,H  68)      0.6757         0.000000   
    405. D(H  69,C  37,C  36,C  30)   -179.3030         0.000000   
    406. D(C  31,C  37,C  36,H  68)    179.4374         0.000000   
    407. D(C  31,C  37,C  36,C  30)     -0.5413         0.000000   
    408. D(H  69,C  37,C  31,C  32)      1.5955         0.000000   
    409. D(H  69,C  37,C  31,C  29)    179.1640         0.000000   
    410. D(C  36,C  37,C  31,C  32)   -177.1868         0.000000   
    411. D(C  36,C  37,C  31,C  29)      0.3817         0.000000   
    412. D(H  70,C  38,C  32,C  31)     -2.7198         0.000000   
    413. D(H  70,C  38,C  32,C  26)    179.6215         0.000000   
    414. D(C  39,C  38,C  32,C  31)    177.6790         0.000000   
    415. D(C  39,C  38,C  32,C  26)      0.0202         0.000000   
    416. D(H  71,C  39,C  38,H  70)     -0.4062         0.000000   
    417. D(H  71,C  39,C  38,C  32)    179.1904         0.000000   
    418. D(C  34,C  39,C  38,H  70)    179.8694         0.000000   
    419. D(C  34,C  39,C  38,C  32)     -0.5339         0.000000   
    420. D(H  71,C  39,C  34,H  67)      0.0991         0.000000   
    421. D(H  71,C  39,C  34,C  27)   -179.5806         0.000000   
    422. D(C  38,C  39,C  34,H  67)    179.8221         0.000000   
    423. D(C  38,C  39,C  34,C  27)      0.1424         0.000000   
    424. D(H  72,C  40,C  33,H  65)     -0.1232         0.000000   
    425. D(H  72,C  40,C  33,C  23)   -179.3280         0.000000   
    426. D(C  41,C  40,C  33,H  65)    179.8216         0.000000   
    427. D(C  41,C  40,C  33,C  23)      0.6169         0.000000   
    428. D(H  73,C  41,C  40,H  72)     -0.5348         0.000000   
    429. D(H  73,C  41,C  40,C  33)    179.5203         0.000000   
    430. D(C  35,C  41,C  40,H  72)    179.5077         0.000000   
    431. D(C  35,C  41,C  40,C  33)     -0.4372         0.000000   
    432. D(H  73,C  41,C  35,H  66)      0.7202         0.000000   
    433. D(H  73,C  41,C  35,C  24)    179.7333         0.000000   
    434. D(C  40,C  41,C  35,H  66)   -179.3218         0.000000   
    435. D(C  40,C  41,C  35,C  24)     -0.3088         0.000000   
    436. D(N  75,Cu 42,C  21,C  22)    -50.3428         0.000000   
    437. D(N  75,Cu 42,C  21,C  19)    179.4214         0.000000   
    438. D(N  75,Cu 42,C  21,Br  0)     68.4468         0.000000   
    439. D(N  74,Cu 42,C  21,C  22)     82.0864         0.000000   
    440. D(N  74,Cu 42,C  21,C  19)    -48.1495         0.000000   
    441. D(N  74,Cu 42,C  21,Br  0)   -159.1240         0.000000   
    442. D(C  11,Cu 42,C  21,C  22)     26.3885         0.000000   
    443. D(C  11,Cu 42,C  21,Br  0)    145.1781         0.000000   
    444. D(C   4,Cu 42,C  21,C  22)     67.9839         0.000000   
    445. D(C   4,Cu 42,C  21,C  19)    -62.2519         0.000000   
    446. D(Br  0,Cu 42,C  21,C  22)   -118.7896         0.000000   
    447. D(Br  0,Cu 42,C  21,C  19)    110.9746         0.000000   
    448. D(N  75,Cu 42,C  11,C   4)    175.3377         0.000000   
    449. D(N  74,Cu 42,C  11,N  75)   -177.5744         0.000000   
    450. D(N  74,Cu 42,C  11,C   4)     -2.2366         0.000000   
    451. D(N  74,Cu 42,C  11,C   3)    172.6800         0.000000   
    452. D(C  21,Cu 42,C  11,N  75)   -113.7424         0.000000   
    453. D(C  21,Cu 42,C  11,C   4)     61.5953         0.000000   
    454. D(C  21,Cu 42,C  11,C   3)   -123.4880         0.000000   
    455. D(C   4,Cu 42,C  11,N  75)   -175.3377         0.000000   
    456. D(C   4,Cu 42,C  11,C   3)    174.9167         0.000000   
    457. D(Br  0,Cu 42,C  11,N  75)     16.5726         0.000000   
    458. D(Br  0,Cu 42,C  11,C   4)   -168.0897         0.000000   
    459. D(Br  0,Cu 42,C  11,C   3)      6.8270         0.000000   
    460. D(N  75,Cu 42,C   4,N  74)   -178.5170         0.000000   
    461. D(N  75,Cu 42,C   4,C  11)     -2.5677         0.000000   
    462. D(N  75,Cu 42,C   4,C   6)   -178.2843         0.000000   
    463. D(N  75,Cu 42,C  11,C   3)     -9.7456         0.000000   
    464. D(N  74,Cu 42,C   4,C  11)    175.9493         0.000000   
    465. D(N  74,Cu 42,C   4,C   6)      0.2327         0.000000   
    466. D(C  21,Cu 42,C   4,N  74)     28.6302         0.000000   
    467. D(C   4,Cu 42,C  21,Br  0)   -173.2265         0.000000   
    468. D(C  21,Cu 42,C   4,C  11)   -155.4205         0.000000   
    469. D(C  21,Cu 42,C   4,C   6)     28.8629         0.000000   
    470. D(C  11,Cu 42,C   4,N  74)   -175.9493         0.000000   
    471. D(C  11,Cu 42,C  21,C  19)   -103.8473         0.000000   
    472. D(C  11,Cu 42,C   4,C   6)   -175.7166         0.000000   
    473. D(Br  0,Cu 42,C   4,N  74)   -105.3234         0.000000   
    474. D(Br  0,Cu 42,C   4,C  11)     70.6259         0.000000   
    475. D(Br  0,Cu 42,C   4,C   6)   -105.0907         0.000000   
    476. D(N  75,Cu 42,Br  0,C  21)   -151.8853         0.000000   
    477. D(N  74,Cu 42,Br  0,C  21)     46.5561         0.000000   
    478. D(C  11,Cu 42,Br  0,C  21)   -160.7246         0.000000   
    479. D(C   4,Cu 42,Br  0,C  21)    138.7707         0.000000   
    480. D(C   7,N  74,Cu 42,N  75)    157.1090         0.000000   
    481. D(C   7,N  74,Cu 42,C  11)    158.2502         0.000000   
    482. D(C   7,N  74,Cu 42,C   4)    155.8428         0.000000   
    483. D(C   7,N  74,Cu 42,Br  0)    -38.9314         0.000000   
    484. D(C   4,N  74,Cu 42,N  75)      1.2662         0.000000   
    485. D(C   4,N  74,Cu 42,C  21)   -159.6673         0.000000   
    486. D(C   4,N  74,Cu 42,C  11)      2.4074         0.000000   
    487. D(C   4,N  74,Cu 42,Br  0)    165.2258         0.000000   
    488. D(Cu 42,N  74,C   7,C  12)   -104.6329         0.000000   
    489. D(Cu 42,N  74,C   7,C   1)     73.7732         0.000000   
    490. D(C   4,N  74,C   7,C  12)     48.0039         0.000000   
    491. D(C   4,N  74,C   7,C   1)   -133.5901         0.000000   
    492. D(Cu 42,N  74,C   4,C  11)     -4.3706         0.000000   
    493. D(Cu 42,N  74,C   4,C   6)   -179.9342         0.000000   
    494. D(C   7,N  74,C   4,Cu 42)   -155.5670         0.000000   
    495. D(C   7,N  74,Cu 42,C  21)     -3.8245         0.000000   
    496. D(C   7,N  74,C   4,C  11)   -159.9376         0.000000   
    497. D(C   7,N  74,C   4,C   6)     24.4988         0.000000   
    498. D(C  11,N  75,C  26,C  32)   -109.8335         0.000000   
    499. D(C  11,N  75,C  26,C  27)     70.2652         0.000000   
    500. D(Cu 42,N  75,C  11,C   4)     -5.0538         0.000000   
    501. D(Cu 42,N  75,C  11,C   3)    177.3034         0.000000   
    502. D(C  26,N  75,C  11,Cu 42)   -160.7845         0.000000   
    503. D(C  26,N  75,C  11,C   4)   -165.8383         0.000000   
    504. D(C  26,N  75,C  11,C   3)     16.5189         0.000000   
    505. D(C  26,N  75,Cu 42,N  74)    161.0236         0.000000   
    506. D(C  26,N  75,Cu 42,C  21)    -62.2622         0.000000   
    507. D(C  26,N  75,Cu 42,C  11)    158.9499         0.000000   
    508. D(C  26,N  75,Cu 42,C   4)    161.7241         0.000000   
    509. D(C  26,N  75,Cu 42,Br  0)    -10.6843         0.000000   
    510. D(C  11,N  75,Cu 42,N  74)      2.0737         0.000000   
    511. D(C  11,N  75,Cu 42,C  21)    138.7879         0.000000   
    512. D(C  11,N  75,Cu 42,C   4)      2.7742         0.000000   
    513. D(C  11,N  75,Cu 42,Br  0)   -169.6342         0.000000   
    514. D(Cu 42,N  75,C  26,C  32)     93.1026         0.000000   
    515. D(Cu 42,N  75,C  26,C  27)    -86.7987         0.000000   
    516. D(C  14,O  76,C  16,C  20)    178.4516         0.000000   
    517. D(C  14,O  76,C  16,C  15)     -0.9377         0.000000   
    518. D(C  16,O  76,C  14,H  58)     60.7294         0.000000   
    519. D(C  16,O  76,C  14,H  50)    -61.8395         0.000000   
    520. D(C  16,O  76,C  14,H  44)    179.4328         0.000000   
    -----------------------------------------------------------------

Number of atoms                         .... 77
Number of degrees of freedom            .... 520

         *************************************************************
         *                GEOMETRY OPTIMIZATION CYCLE   1            *
         *************************************************************
---------------------------------
CARTESIAN COORDINATES (ANGSTROEM)
---------------------------------
  Br     0.168970    3.149782   -0.914000
  C     -2.470057   -1.099430   -1.564206
  C     -4.148598   -2.164528   -0.115549
  C      3.380954   -2.183718   -0.776809
  C      0.939796   -1.954483   -0.863168
  C     -3.136807   -2.531165    0.750701
  C      0.853087   -3.352881   -0.964838
  C     -1.417841   -1.480074   -0.642448
  C      3.263505   -3.577946   -0.874814
  C     -2.175612   -0.412047   -2.765484
  C     -3.837025   -1.431834   -1.288976
  C      2.245957   -1.344260   -0.763531
  C     -1.779186   -2.195932    0.528812
  C      1.997176   -4.165589   -0.969434
  C     -5.978137    0.762951    1.225553
  C     -3.694700    1.686433   -0.168553
  C     -3.670882    1.363308    1.197283
  C     -3.172897   -0.025619   -3.644476
  C     -4.843239   -1.017707   -2.202411
  C     -2.538097    2.139281   -0.802341
  C     -2.474578    1.521489    1.923143
  C     -1.366238    2.262808   -0.070420
  C     -1.326041    1.990773    1.295563
  C     -0.819133   -3.838867    2.158585
  C     -0.797601   -2.559556    1.573328
  C     -4.523912   -0.321438   -3.353581
  C      3.484546    0.693385   -0.808076
  C      4.025181    0.806674   -2.108733
  C      4.251265    0.583518    3.988753
  C      4.636366    0.657736    2.646735
  C      2.985454    1.028594    4.379204
  C      3.763569    1.170504    1.673027
  C      4.203882    1.291337    0.264288
  C      0.091266   -4.194354    3.157432
  C      5.206963    1.498034   -2.362774
  C      0.162960   -1.641710    2.036698
  C      2.113189    1.543227    3.413950
  C      2.500591    1.604993    2.083320
  C      5.399899    1.978908   -0.009264
  C      5.905808    2.094381   -1.304476
  C      1.049378   -3.274868    3.595229
  C      1.075266   -1.993742    3.030229
  Cu     0.470422    0.750856   -0.747063
  H     -1.133064   -0.176684   -2.977524
  H     -6.680565    0.380186    1.972676
  H     -5.186209   -2.420195    0.099786
  H      4.367708   -1.726995   -0.691187
  H     -0.134723   -3.807371   -1.049535
  H     -3.390586   -3.061504    1.669998
  H      4.162745   -4.197013   -0.871821
  H     -6.341388    1.728549    0.845772
  H     -1.544361   -4.573468    1.806538
  H     -4.596799    1.566358   -0.761421
  H     -2.555349    2.375244   -1.862799
  H     -2.456693    1.281871    2.985108
  H      1.891192   -5.248655   -1.052005
  H     -2.916897    0.508610   -4.560387
  H      3.477734    0.333929   -2.925696
  H     -5.899325    0.043949    0.399404
  H     -5.883158   -1.258471   -1.975181
  H     -0.414304    2.141373    1.866244
  H      4.941374    0.175227    4.728175
  H      5.623626    0.306428    2.344094
  H     -5.311473   -0.009540   -4.041262
  H      2.679281    0.973320    5.424461
  H      0.059172   -5.197621    3.585109
  H      0.201987   -0.645226    1.598437
  H      5.581897    1.577557   -3.384771
  H      1.124194    1.898611    3.704193
  H      1.826862    2.015045    1.337262
  H      5.937255    2.437643    0.822467
  H      6.829027    2.645156   -1.486544
  H      1.768868   -3.551967    4.366975
  H      1.810060   -1.260221    3.364164
  N     -0.136964   -1.098891   -0.940078
  N      2.288204    0.016539   -0.615424
  O     -4.734328    0.911696    1.894026

----------------------------
CARTESIAN COORDINATES (A.U.)
----------------------------
  NO LB      ZA    FRAG     MASS         X           Y           Z
   0 Br   35.0000    0    79.900    0.319307    5.952226   -1.727211
   1 C     6.0000    0    12.011   -4.667732   -2.077622   -2.955921
   2 C     6.0000    0    12.011   -7.839714   -4.090365   -0.218355
   3 C     6.0000    0    12.011    6.389078   -4.126629   -1.467957
   4 C     6.0000    0    12.011    1.775957   -3.693438   -1.631152
   5 C     6.0000    0    12.011   -5.927707   -4.783209    1.418619
   6 C     6.0000    0    12.011    1.612101   -6.336027   -1.823279
   7 C     6.0000    0    12.011   -2.679331   -2.796934   -1.214050
   8 C     6.0000    0    12.011    6.167131   -6.761338   -1.653158
   9 C     6.0000    0    12.011   -4.111311   -0.778655   -5.226007
  10 C     6.0000    0    12.011   -7.250926   -2.705774   -2.435812
  11 C     6.0000    0    12.011    4.244243   -2.540284   -1.442864
  12 C     6.0000    0    12.011   -3.362175   -4.149711    0.999310
  13 C     6.0000    0    12.011    3.774116   -7.871823   -1.831964
  14 C     6.0000    0    12.011  -11.297041    1.441769    2.315960
  15 C     6.0000    0    12.011   -6.981972    3.186896   -0.318520
  16 C     6.0000    0    12.011   -6.936962    2.576279    2.262536
  17 C     6.0000    0    12.011   -5.995906   -0.048414   -6.887061
  18 C     6.0000    0    12.011   -9.152396   -1.923187   -4.161954
  19 C     6.0000    0    12.011   -4.796308    4.042656   -1.516204
  20 C     6.0000    0    12.011   -4.676275    2.875197    3.634213
  21 C     6.0000    0    12.011   -2.581816    4.276087   -0.133074
  22 C     6.0000    0    12.011   -2.505853    3.762016    2.448259
  23 C     6.0000    0    12.011   -1.547937   -7.254407    4.079134
  24 C     6.0000    0    12.011   -1.507247   -4.836860    2.973159
  25 C     6.0000    0    12.011   -8.548955   -0.607429   -6.337350
  26 C     6.0000    0    12.011    6.584837    1.310307   -1.527042
  27 C     6.0000    0    12.011    7.606489    1.524392   -3.984927
  28 C     6.0000    0    12.011    8.033727    1.102690    7.537650
  29 C     6.0000    0    12.011    8.761463    1.242940    5.001604
  30 C     6.0000    0    12.011    5.641690    1.943761    8.275496
  31 C     6.0000    0    12.011    7.112114    2.211933    3.161563
  32 C     6.0000    0    12.011    7.944186    2.440272    0.499433
  33 C     6.0000    0    12.011    0.172468   -7.926180    5.966682
  34 C     6.0000    0    12.011    9.839734    2.830874   -4.464996
  35 C     6.0000    0    12.011    0.307950   -3.102382    3.848802
  36 C     6.0000    0    12.011    3.993348    2.916277    6.451430
  37 C     6.0000    0    12.011    4.725431    3.032998    3.936904
  38 C     6.0000    0    12.011   10.204330    3.739595   -0.017507
  39 C     6.0000    0    12.011   11.160360    3.957806   -2.465103
  40 C     6.0000    0    12.011    1.983036   -6.188604    6.793997
  41 C     6.0000    0    12.011    2.031958   -3.767626    5.726303
  42 Cu   29.0000    0    63.550    0.888969    1.418913   -1.411744
  43 H     1.0000    0     1.008   -2.141181   -0.333884   -5.626705
  44 H     1.0000    0     1.008  -12.624439    0.718447    3.727817
  45 H     1.0000    0     1.008   -9.800514   -4.573505    0.188568
  46 H     1.0000    0     1.008    8.253772   -3.263547   -1.306154
  47 H     1.0000    0     1.008   -0.254590   -7.194889   -1.983333
  48 H     1.0000    0     1.008   -6.407279   -5.785405    3.155839
  49 H     1.0000    0     1.008    7.866448   -7.931205   -1.647504
  50 H     1.0000    0     1.008  -11.983486    3.266484    1.598278
  51 H     1.0000    0     1.008   -2.918419   -8.642601    3.413862
  52 H     1.0000    0     1.008   -8.686691    2.959988   -1.438877
  53 H     1.0000    0     1.008   -4.828910    4.488561   -3.520181
  54 H     1.0000    0     1.008   -4.642478    2.422386    5.641036
  55 H     1.0000    0     1.008    3.573836   -9.918520   -1.988002
  56 H     1.0000    0     1.008   -5.512137    0.961133   -8.617882
  57 H     1.0000    0     1.008    6.571964    0.631035   -5.528764
  58 H     1.0000    0     1.008  -11.148108    0.083051    0.754764
  59 H     1.0000    0     1.008  -11.117557   -2.378165   -3.732551
  60 H     1.0000    0     1.008   -0.782920    4.046609    3.526690
  61 H     1.0000    0     1.008    9.337844    0.331132    8.934955
  62 H     1.0000    0     1.008   10.627112    0.579065    4.429696
  63 H     1.0000    0     1.008  -10.037229   -0.018028   -7.636878
  64 H     1.0000    0     1.008    5.063108    1.839308   10.250746
  65 H     1.0000    0     1.008    0.111818   -9.822080    6.774874
  66 H     1.0000    0     1.008    0.381700   -1.219301    3.020609
  67 H     1.0000    0     1.008   10.548258    2.981151   -6.396290
  68 H     1.0000    0     1.008    2.124419    3.587854    6.999910
  69 H     1.0000    0     1.008    3.452269    3.807884    2.527058
  70 H     1.0000    0     1.008   11.219785    4.606478    1.554238
  71 H     1.0000    0     1.008   12.904991    4.998620   -2.809161
  72 H     1.0000    0     1.008    3.342676   -6.712245    8.252387
  73 H     1.0000    0     1.008    3.420518   -2.381472    6.357348
  74 N     7.0000    0    14.007   -0.258824   -2.076603   -1.776489
  75 N     7.0000    0    14.007    4.324080    0.031255   -1.162982
  76 O     8.0000    0    15.999   -8.946584    1.722856    3.579191

--------------------------------
INTERNAL COORDINATES (ANGSTROEM)
--------------------------------
 Br     0   0   0     0.000000000000     0.00000000     0.00000000
 C      1   0   0     5.044109238761     0.00000000     0.00000000
 C      2   1   0     2.459784584004   130.23114269     0.00000000
 C      2   1   3     6.002500520745    67.99282620   247.77969450
 C      4   2   1     2.453418474305     7.52539730   128.09083114
 C      3   2   1     1.381495930936    89.10756068   287.56553066
 C      5   4   2     1.404767639520    88.33544756   128.42650978
 C      2   1   3     1.449719880347    76.08347297   281.53637666
 C      4   2   1     1.402593921998    95.09297302   179.75787327
 C      2   1   3     1.415012889757    65.87925584   147.60942173
 C      3   2   1     1.418044774664    30.56988241   106.84960410
 C      4   2   1     1.411766609322    27.14651591    11.21437735
 C      6   3   2     1.415891971667   122.76169362     1.01424128
 C      9   4   2     1.399237848439   119.86626767   354.22737806
 C      3   2   1     3.703498670933   102.01070651    37.98937855
 C     15   3   2     2.830270850771    71.39710161   350.98011455
 C     16  15   3     1.403739528217    57.26952488   270.75324712
 C     10   2   1     1.384387648827   121.64951366   235.68208352
 C     11   3   2     1.420680316860   121.80567993   179.94813387
 C     16  15   3     1.394449634895   177.46070743   268.53978275
 C     17  16  15     1.408203260508   119.34656374   181.11862343
 C     20  16  17     1.387162684332   119.32738275     0.17897028
 C     21  17  16     1.390403846136   120.46438928   359.89441703
 C     13   6   3     2.505413045658    96.32801219   196.12590899
 C     24  13   6     1.406991670906    30.57478439   219.51239663
 C     19  11   3     1.382733749122   121.23161730   181.00524907
 C     12   4   2     2.384970562979    95.18237825   198.93341560
 C     27  12   4     1.413092058795   106.52165068    72.04976436
 C     27  12   4     4.858959934037    92.53278474   277.79898748
 C     29  27  12     1.398149656075    25.13401614   125.48739271
 C     29  27  12     1.397434575279    97.22112567   282.17827722
 C     30  29  27     1.404568928669   120.90621593    26.65963571
 C     27  12   4     1.423009666841   127.40580770   284.96790122
 C     24  13   6     1.397459792574   151.81161995   220.82556982
 C     28  27  12     1.392525151775   122.16839437   207.94431701
 C     25  24  13     1.407064343901   117.81258617   178.60581178
 C     31  29  27     1.399074364667   119.28286761   348.95837839
 C     37  31  29     1.387252753366   120.26729129     0.26490909
 C     33  27  12     1.406428602192   119.25713528   144.76687197
 C     39  33  27     1.395296630712   121.96125742     0.00000000
 C     34  24  13     1.398248020201   120.19294584   359.16142489
 C     36  25  24     1.394033949216   121.11395119     0.85059028
 Cu     1   2   3     2.423548556569    40.54494452   102.39242599
 H     10   2   1     1.089616292984   117.98468065    54.70203515
 H     15   3   2     1.094581034671   106.72440275   186.09666449
 H      3   2   1     1.090124131968   150.15876974   106.80943545
 H      4   2   1     1.090692653307   144.73862555   352.15728353
 H      7   5   4     1.090643965826   118.44747848   180.67820678
 H      6   3   2     1.091224368916   119.13698640   178.10091695
 H      9   4   2     1.091735117816   119.63693941   174.51778425
 H     15   3   2     1.099346828759   137.09019835    39.92333952
 H     24  13   6     1.090656001742    88.67654465    41.52375927
 H     16  15   3     1.086136315543    64.06900479    89.04207827
 H     20  16  53     1.086530743752   120.06336404     0.76514594
 H     21  17  16     1.088809332000   119.47059776   179.33108190
 H     14   9   4     1.091366811585   120.64935742   179.64756259
 H     18  10   2     1.090793504938   120.05147539   179.62315504
 H     28  27  12     1.091152682997   117.54582512    28.32757338
 H     15   3   2     1.098043097292    34.36014203    86.18095637
 H     19  11   3     1.091343687257   118.47069058     1.21005454
 H     23  21  17     1.086103564386   120.20303723   178.03767391
 H     29  27  12     1.090732248200   141.03646040    86.50889748
 H     30  29  27     1.090728870988   119.90328958   207.18311469
 H     26  19  11     1.091071404307   120.13084496   180.17927780
 H     31  29  27     1.090577507235   120.39461341   168.80474248
 H     34  24  13     1.091092342293   119.66363352   179.95285568
 H     36  25  24     1.089300684059   119.25478603   179.86720367
 H     35  28  27     1.091502132832   119.90112150   181.09504729
 H     37  31  29     1.090251696657   120.11836561   180.28630525
 H     38  37  31     1.085659233939   120.17627060   180.69699471
 H     39  33  27     1.091313758120   118.42391176   179.62145069
 H     40  39  33     1.090337211052   120.25295350   179.19043117
 H     41  34  24     1.090890790959   120.42439385   180.67201041
 H     42  36  25     1.090636503618   119.29391840   179.73327441
 N      8   2   1     1.369134434249   117.88520148   312.85204466
 N     12   4   2     1.369487909134   124.54538150   190.63900926
 O     17  16  15     1.349193434388   124.48196648     0.48982988

---------------------------
INTERNAL COORDINATES (A.U.)
---------------------------
 Br     0   0   0     0.000000000000     0.00000000     0.00000000
 C      1   0   0     9.531985050840     0.00000000     0.00000000
 C      2   1   0     4.648319212210   130.23114269     0.00000000
 C      2   1   3    11.343082102928    67.99282620   247.77969450
 C      4   2   1     4.636289008339     7.52539730   128.09083114
 C      3   2   1     2.610648964595    89.10756068   287.56553066
 C      5   4   2     2.654626120488    88.33544756   128.42650978
 C      2   1   3     2.739573544757    76.08347297   281.53637666
 C      4   2   1     2.650518389678    95.09297302   179.75787327
 C      2   1   3     2.673986837609    65.87925584   147.60942173
 C      3   2   1     2.679716269754    30.56988241   106.84960410
 C      4   2   1     2.667852256633    27.14651591    11.21437735
 C      6   3   2     2.675648061668   122.76169362     1.01424128
 C      9   4   2     2.644176329766   119.86626767   354.22737806
 C      3   2   1     6.998598225405   102.01070651    37.98937855
 C     15   3   2     5.348436792777    71.39710161   350.98011455
 C     16  15   3     2.652683271689    57.26952488   270.75324712
 C     10   2   1     2.616113519467   121.64951366   235.68208352
 C     11   3   2     2.684696722718   121.80567993   179.94813387
 C     16  15   3     2.635127917499   177.46070743   268.53978275
 C     17  16  15     2.661118503255   119.34656374   181.11862343
 C     20  16  17     2.621357576582   119.32738275     0.17897028
 C     21  17  16     2.627482484748   120.46438928   359.89441703
 C     13   6   3     4.734544508648    96.32801219   196.12590899
 C     24  13   6     2.658828930721    30.57478439   219.51239663
 C     19  11   3     2.612988101970   121.23161730   181.00524907
 C     12   4   2     4.506941201495    95.18237825   198.93341560
 C     27  12   4     2.670356993142   106.52165068    72.04976436
 C     27  12   4     9.182103571026    92.53278474   277.79898748
 C     29  27  12     2.642119944218    25.13401614   125.48739271
 C     29  27  12     2.640768637351    97.22112567   282.17827722
 C     30  29  27     2.654250611399   120.90621593    26.65963571
 C     27  12   4     2.689098556253   127.40580770   284.96790122
 C     24  13   6     2.640816291131   151.81161995   220.82556982
 C     28  27  12     2.631491171452   122.16839437   207.94431701
 C     25  24  13     2.658966262778   117.81258617   178.60581178
 C     31  29  27     2.643867390210   119.28286761   348.95837839
 C     37  31  29     2.621527782390   120.26729129     0.26490909
 C     33  27  12     2.657764885057   119.25713528   144.76687197
 C     39  33  27     2.636728507628   121.96125742     0.00000000
 C     34  24  13     2.642305825478   120.19294584   359.16142489
 C     36  25  24     2.634342385407   121.11395119     0.85059028
 Cu     1   2   3     4.579843044176    40.54494452   102.39242599
 H     10   2   1     2.059076384799   117.98468065    54.70203515
 H     15   3   2     2.068458386913   106.72440275   186.09666449
 H      3   2   1     2.060036061399   150.15876974   106.80943545
 H      4   2   1     2.061110411030   144.73862555   352.15728353
 H      7   5   4     2.061018405025   118.44747848   180.67820678
 H      6   3   2     2.062115207913   119.13698640   178.10091695
 H      9   4   2     2.063080383456   119.63693941   174.51778425
 H     15   3   2     2.077464432549   137.09019835    39.92333952
 H     24  13   6     2.061041149610    88.67654465    41.52375927
 H     16  15   3     2.052500180482    64.06900479    89.04207827
 H     20  16  53     2.053245541778   120.06336404     0.76514594
 H     21  17  16     2.057551449539   119.47059776   179.33108190
 H     14   9   4     2.062384385547   120.64935742   179.64756259
 H     18  10   2     2.061300992993   120.05147539   179.62315504
 H     28  27  12     2.061979741159   117.54582512    28.32757338
 H     15   3   2     2.075000737124    34.36014203    86.18095637
 H     19  11   3     2.062340686899   118.47069058     1.21005454
 H     23  21  17     2.052438289765   120.20303723   178.03767391
 H     29  27  12     2.061185234535   141.03646040    86.50889748
 H     30  29  27     2.061178852529   119.90328958   207.18311469
 H     26  19  11     2.061826146692   120.13084496   180.17927780
 H     31  29  27     2.060892816488   120.39461341   168.80474248
 H     34  24  13     2.061865713753   119.66363352   179.95285568
 H     36  25  24     2.058479970364   119.25478603   179.86720367
 H     35  28  27     2.062640105643   119.90112150   181.09504729
 H     37  31  29     2.060277123725   120.11836561   180.28630525
 H     38  37  31     2.051598626907   120.17627060   180.69699471
 H     39  33  27     2.062284129027   118.42391176   179.62145069
 H     40  39  33     2.060438722513   120.25295350   179.19043117
 H     41  34  24     2.061484836929   120.42439385   180.67201041
 H     42  36  25     2.061004303495   119.29391840   179.73327441
 N      8   2   1     2.587289121252   117.88520148   312.85204466
 N     12   4   2     2.587957091980   124.54538150   190.63900926
 O     17  16  15     2.549606092678   124.48196648     0.48982988

---------------------
BASIS SET INFORMATION
---------------------
There are 7 groups of distinct atoms

 Group   1 Type Br  : 17s13p8d1f contracted to 6s5p4d1f pattern {842111/64111/5111/1}
 Group   2 Type C   : 7s4p1d contracted to 3s2p1d pattern {511/31/1}
 Group   3 Type C   : 11s6p2d1f contracted to 5s3p2d1f pattern {62111/411/11/1}
 Group   4 Type Cu  : 17s11p7d1f contracted to 6s4p4d1f pattern {842111/6311/4111/1}
 Group   5 Type H   : 3s contracted to 1s pattern {3}
 Group   6 Type N   : 11s6p2d1f contracted to 5s3p2d1f pattern {62111/411/11/1}
 Group   7 Type O   : 7s4p1d contracted to 3s2p1d pattern {511/31/1}

Atom   0Br   basis set group =>   1
Atom   1C    basis set group =>   2
Atom   2C    basis set group =>   2
Atom   3C    basis set group =>   2
Atom   4C    basis set group =>   2
Atom   5C    basis set group =>   2
Atom   6C    basis set group =>   2
Atom   7C    basis set group =>   2
Atom   8C    basis set group =>   2
Atom   9C    basis set group =>   2
Atom  10C    basis set group =>   2
Atom  11C    basis set group =>   2
Atom  12C    basis set group =>   2
Atom  13C    basis set group =>   2
Atom  14C    basis set group =>   2
Atom  15C    basis set group =>   2
Atom  16C    basis set group =>   2
Atom  17C    basis set group =>   2
Atom  18C    basis set group =>   2
Atom  19C    basis set group =>   2
Atom  20C    basis set group =>   2
Atom  21C    basis set group =>   3
Atom  22C    basis set group =>   2
Atom  23C    basis set group =>   2
Atom  24C    basis set group =>   2
Atom  25C    basis set group =>   2
Atom  26C    basis set group =>   2
Atom  27C    basis set group =>   2
Atom  28C    basis set group =>   2
Atom  29C    basis set group =>   2
Atom  30C    basis set group =>   2
Atom  31C    basis set group =>   2
Atom  32C    basis set group =>   2
Atom  33C    basis set group =>   2
Atom  34C    basis set group =>   2
Atom  35C    basis set group =>   2
Atom  36C    basis set group =>   2
Atom  37C    basis set group =>   3
Atom  38C    basis set group =>   2
Atom  39C    basis set group =>   2
Atom  40C    basis set group =>   2
Atom  41C    basis set group =>   2
Atom  42Cu   basis set group =>   4
Atom  43H    basis set group =>   5
Atom  44H    basis set group =>   5
Atom  45H    basis set group =>   5
Atom  46H    basis set group =>   5
Atom  47H    basis set group =>   5
Atom  48H    basis set group =>   5
Atom  49H    basis set group =>   5
Atom  50H    basis set group =>   5
Atom  51H    basis set group =>   5
Atom  52H    basis set group =>   5
Atom  53H    basis set group =>   5
Atom  54H    basis set group =>   5
Atom  55H    basis set group =>   5
Atom  56H    basis set group =>   5
Atom  57H    basis set group =>   5
Atom  58H    basis set group =>   5
Atom  59H    basis set group =>   5
Atom  60H    basis set group =>   5
Atom  61H    basis set group =>   5
Atom  62H    basis set group =>   5
Atom  63H    basis set group =>   5
Atom  64H    basis set group =>   5
Atom  65H    basis set group =>   5
Atom  66H    basis set group =>   5
Atom  67H    basis set group =>   5
Atom  68H    basis set group =>   5
Atom  69H    basis set group =>   5
Atom  70H    basis set group =>   5
Atom  71H    basis set group =>   5
Atom  72H    basis set group =>   5
Atom  73H    basis set group =>   5
Atom  74N    basis set group =>   6
Atom  75N    basis set group =>   6
Atom  76O    basis set group =>   7
---------------------------------
AUXILIARY/J BASIS SET INFORMATION
---------------------------------
There are 6 groups of distinct atoms

 Group   1 Type Br  : 19s5p5d3f1g contracted to 8s4p3d2f1g pattern {121111111/2111/311/21/1}
 Group   2 Type C   : 8s3p3d contracted to 6s3p3d pattern {311111/111/111}
 Group   3 Type Cu  : 19s5p5d3f3g contracted to 8s5p4d3f3g pattern {121111111/11111/2111/111/111}
 Group   4 Type H   : 5s2p contracted to 3s1p pattern {311/2}
 Group   5 Type N   : 8s3p3d contracted to 6s3p3d pattern {311111/111/111}
 Group   6 Type O   : 8s3p3d contracted to 6s3p3d pattern {311111/111/111}

Atom   0Br   basis set group =>   1
Atom   1C    basis set group =>   2
Atom   2C    basis set group =>   2
Atom   3C    basis set group =>   2
Atom   4C    basis set group =>   2
Atom   5C    basis set group =>   2
Atom   6C    basis set group =>   2
Atom   7C    basis set group =>   2
Atom   8C    basis set group =>   2
Atom   9C    basis set group =>   2
Atom  10C    basis set group =>   2
Atom  11C    basis set group =>   2
Atom  12C    basis set group =>   2
Atom  13C    basis set group =>   2
Atom  14C    basis set group =>   2
Atom  15C    basis set group =>   2
Atom  16C    basis set group =>   2
Atom  17C    basis set group =>   2
Atom  18C    basis set group =>   2
Atom  19C    basis set group =>   2
Atom  20C    basis set group =>   2
Atom  21C    basis set group =>   2
Atom  22C    basis set group =>   2
Atom  23C    basis set group =>   2
Atom  24C    basis set group =>   2
Atom  25C    basis set group =>   2
Atom  26C    basis set group =>   2
Atom  27C    basis set group =>   2
Atom  28C    basis set group =>   2
Atom  29C    basis set group =>   2
Atom  30C    basis set group =>   2
Atom  31C    basis set group =>   2
Atom  32C    basis set group =>   2
Atom  33C    basis set group =>   2
Atom  34C    basis set group =>   2
Atom  35C    basis set group =>   2
Atom  36C    basis set group =>   2
Atom  37C    basis set group =>   2
Atom  38C    basis set group =>   2
Atom  39C    basis set group =>   2
Atom  40C    basis set group =>   2
Atom  41C    basis set group =>   2
Atom  42Cu   basis set group =>   3
Atom  43H    basis set group =>   4
Atom  44H    basis set group =>   4
Atom  45H    basis set group =>   4
Atom  46H    basis set group =>   4
Atom  47H    basis set group =>   4
Atom  48H    basis set group =>   4
Atom  49H    basis set group =>   4
Atom  50H    basis set group =>   4
Atom  51H    basis set group =>   4
Atom  52H    basis set group =>   4
Atom  53H    basis set group =>   4
Atom  54H    basis set group =>   4
Atom  55H    basis set group =>   4
Atom  56H    basis set group =>   4
Atom  57H    basis set group =>   4
Atom  58H    basis set group =>   4
Atom  59H    basis set group =>   4
Atom  60H    basis set group =>   4
Atom  61H    basis set group =>   4
Atom  62H    basis set group =>   4
Atom  63H    basis set group =>   4
Atom  64H    basis set group =>   4
Atom  65H    basis set group =>   4
Atom  66H    basis set group =>   4
Atom  67H    basis set group =>   4
Atom  68H    basis set group =>   4
[...]
177:   1470.03   0.003012   15.22  0.000639  (-0.017859 -0.015666  0.008662)
178:   1473.76   0.010419   52.65  0.002206  ( 0.034408  0.025203 -0.019673)
179:   1490.17   0.006856   34.65  0.001436  (-0.011969 -0.035368 -0.006447)
180:   1491.10   0.060898  307.75  0.012745  ( 0.093820  0.060570 -0.016553)
181:   1499.91   0.055244  279.18  0.011494  ( 0.095540  0.006094 -0.048256)
182:   1502.67   0.056419  285.12  0.011717  (-0.023591  0.105210  0.009542)
183:   1503.60   0.010880   54.98  0.002258  (-0.012759 -0.045593 -0.004067)
184:   1516.58   0.015265   77.14  0.003141  ( 0.008302  0.037904 -0.040440)
185:   1526.39   0.011540   58.32  0.002359  (-0.032136 -0.013483 -0.033834)
186:   1538.73   0.016391   82.83  0.003324  ( 0.054629  0.017907 -0.004379)
187:   1568.84   0.027583  139.39  0.005487  (-0.051567 -0.036390  0.038772)
188:   1575.82   0.001678    8.48  0.000332  (-0.014547 -0.009930 -0.004708)
189:   1580.89   0.023141  116.94  0.004568  (-0.056597 -0.027781 -0.024351)
190:   1589.28   0.006430   32.49  0.001263  ( 0.029134 -0.002185 -0.020224)
191:   1592.32   0.022554  113.98  0.004420  (-0.056159 -0.035142 -0.005594)
192:   1608.80   0.004497   22.72  0.000872  ( 0.025254  0.014508 -0.004896)
193:   1609.62   0.000206    1.04  0.000040  (-0.000907  0.006234  0.000430)
194:   1613.12   0.022950  115.98  0.004440  (-0.060368  0.009318 -0.026618)
195:   1619.36   0.026015  131.47  0.005013  (-0.066433 -0.009525  0.022564)
196:   1621.86   0.014821   74.90  0.002852  (-0.050570 -0.008378  0.014973)
197:   1634.04   0.002219   11.21  0.000424  ( 0.006646  0.003427 -0.019180)
198:   1635.25   0.010294   52.02  0.001965  (-0.018011  0.018462 -0.036045)
199:   1642.06   0.000310    1.57  0.000059  (-0.006246  0.000370 -0.004447)
200:   2991.80   0.009431   47.66  0.000984  (-0.031335 -0.001179 -0.000633)
201:   3074.61   0.001094    5.53  0.000111  ( 0.001139  0.010079  0.002860)
202:   3103.70   0.000196    0.99  0.000020  (-0.000692  0.003671 -0.002397)
203:   3114.98   0.000790    3.99  0.000079  ( 0.006187  0.006266  0.001253)
204:   3116.14   0.001246    6.30  0.000125  ( 0.009252  0.002753 -0.005620)
205:   3118.64   0.002617   13.23  0.000262  (-0.013931 -0.007322 -0.003773)
206:   3119.82   0.002019   10.20  0.000202  ( 0.008652  0.005822 -0.009652)
207:   3120.40   0.000778    3.93  0.000078  (-0.000896  0.004218 -0.007692)
208:   3121.44   0.001971    9.96  0.000197  (-0.008351  0.011283  0.000105)
209:   3121.96   0.000842    4.26  0.000084  (-0.002679 -0.004163 -0.007726)
210:   3122.97   0.000407    2.06  0.000041  ( 0.004204 -0.003188  0.003582)
211:   3126.40   0.001069    5.40  0.000107  (-0.009727 -0.003319 -0.001011)
212:   3126.80   0.000379    1.91  0.000038  ( 0.003254 -0.000147 -0.005215)
213:   3127.87   0.000299    1.51  0.000030  ( 0.001474  0.004573  0.002598)
214:   3128.15   0.005700   28.80  0.000569  ( 0.020940  0.011045  0.002853)
215:   3130.14   0.004065   20.54  0.000405  ( 0.003798  0.005418  0.019013)
216:   3131.91   0.000244    1.23  0.000024  ( 0.003362  0.000656 -0.003543)
217:   3132.25   0.000956    4.83  0.000095  (-0.008423  0.002243 -0.004391)
218:   3133.24   0.004511   22.80  0.000449  ( 0.021066  0.001071 -0.002095)
219:   3136.22   0.005177   26.16  0.000515  (-0.011916  0.019143  0.002591)
220:   3137.25   0.001688    8.53  0.000168  (-0.001652  0.011844  0.004994)
221:   3137.76   0.006275   31.71  0.000624  ( 0.018602  0.013864 -0.009267)
222:   3138.18   0.004135   20.90  0.000411  (-0.017287  0.010553 -0.001001)
223:   3142.03   0.007044   35.60  0.000700  (-0.013324  0.007412 -0.021613)
224:   3143.96   0.004011   20.27  0.000398  (-0.014852 -0.007985  0.010667)
225:   3144.30   0.002507   12.67  0.000249  ( 0.003558 -0.008291  0.012939)
226:   3146.43   0.003882   19.62  0.000385  (-0.001957  0.001075 -0.019495)
227:   3152.75   0.000635    3.21  0.000063  ( 0.004883  0.001781 -0.005988)
228:   3165.11   0.000087    0.44  0.000009  ( 0.002526 -0.001275 -0.000762)
229:   3176.98   0.000450    2.28  0.000044  ( 0.001950 -0.004696 -0.004287)
230:   3179.79   0.000341    1.73  0.000034  (-0.004244  0.001019  0.003803)

* The epsilon (eps) is given for a Dirac delta lineshape.
** The dipole moment derivative (T) already includes vibrational overlap.

The first frequency considered to be a vibration is 7
The total number of vibrations considered is 224


--------------------------
THERMOCHEMISTRY AT 298.15K
--------------------------

Temperature         ... 298.15 K
Pressure            ... 1.00 atm
Total Mass          ... 711.16 AMU

Throughout the following assumptions are being made:
  (1) The electronic state is orbitally nondegenerate
  (2) There are no thermally accessible electronically excited states
  (3) Hindered rotations indicated by low frequency modes are not
      treated as such but are treated as vibrations and this may
      cause some error
  (4) All equations used are the standard statistical mechanics
      equations for an ideal gas
  (5) All vibrations are strictly harmonic

freq.      14.80  E(vib)   ...       0.57 
freq.      17.28  E(vib)   ...       0.57 
freq.      24.36  E(vib)   ...       0.56 
freq.      27.20  E(vib)   ...       0.55 
freq.      39.92  E(vib)   ...       0.54 
freq.      43.51  E(vib)   ...       0.53 
freq.      45.36  E(vib)   ...       0.53 
freq.      47.04  E(vib)   ...       0.53 
freq.      53.15  E(vib)   ...       0.52 
freq.      56.44  E(vib)   ...       0.52 
freq.      62.89  E(vib)   ...       0.51 
freq.      72.60  E(vib)   ...       0.49 
freq.      81.70  E(vib)   ...       0.48 
freq.      82.18  E(vib)   ...       0.48 
freq.      94.16  E(vib)   ...       0.47 
freq.     100.44  E(vib)   ...       0.46 
freq.     104.92  E(vib)   ...       0.46 
freq.     108.42  E(vib)   ...       0.45 
freq.     114.61  E(vib)   ...       0.44 
freq.     129.43  E(vib)   ...       0.43 
freq.     139.90  E(vib)   ...       0.41 
freq.     144.39  E(vib)   ...       0.41 
freq.     159.17  E(vib)   ...       0.39 
freq.     175.90  E(vib)   ...       0.38 
freq.     184.08  E(vib)   ...       0.37 
freq.     186.04  E(vib)   ...       0.37 
freq.     193.48  E(vib)   ...       0.36 
freq.     217.04  E(vib)   ...       0.34 
freq.     233.62  E(vib)   ...       0.32 
freq.     236.39  E(vib)   ...       0.32 
freq.     250.74  E(vib)   ...       0.30 
freq.     262.10  E(vib)   ...       0.29 
freq.     266.90  E(vib)   ...       0.29 
freq.     290.06  E(vib)   ...       0.27 
freq.     293.73  E(vib)   ...       0.27 
freq.     299.14  E(vib)   ...       0.26 
freq.     303.98  E(vib)   ...       0.26 
freq.     327.12  E(vib)   ...       0.24 
freq.     339.52  E(vib)   ...       0.23 
freq.     353.42  E(vib)   ...       0.22 
freq.     388.15  E(vib)   ...       0.20 
freq.     404.88  E(vib)   ...       0.19 
freq.     408.97  E(vib)   ...       0.19 
freq.     414.88  E(vib)   ...       0.19 
freq.     423.12  E(vib)   ...       0.18 
freq.     424.93  E(vib)   ...       0.18 
freq.     448.39  E(vib)   ...       0.17 
freq.     462.73  E(vib)   ...       0.16 
freq.     474.71  E(vib)   ...       0.15 
freq.     476.17  E(vib)   ...       0.15 
freq.     492.19  E(vib)   ...       0.14 
freq.     502.77  E(vib)   ...       0.14 
freq.     524.94  E(vib)   ...       0.13 
freq.     529.34  E(vib)   ...       0.13 
freq.     532.69  E(vib)   ...       0.13 
freq.     551.75  E(vib)   ...       0.12 
freq.     560.33  E(vib)   ...       0.11 
freq.     561.29  E(vib)   ...       0.11 
freq.     569.21  E(vib)   ...       0.11 
freq.     585.33  E(vib)   ...       0.11 
freq.     591.26  E(vib)   ...       0.10 
freq.     599.99  E(vib)   ...       0.10 
freq.     605.90  E(vib)   ...       0.10 
freq.     624.40  E(vib)   ...       0.09 
freq.     629.30  E(vib)   ...       0.09 
freq.     632.19  E(vib)   ...       0.09 
freq.     635.55  E(vib)   ...       0.09 
freq.     645.74  E(vib)   ...       0.09 
freq.     659.89  E(vib)   ...       0.08 
freq.     683.14  E(vib)   ...       0.08 
freq.     692.08  E(vib)   ...       0.07 
freq.     696.42  E(vib)   ...       0.07 
freq.     698.34  E(vib)   ...       0.07 
freq.     706.46  E(vib)   ...       0.07 
freq.     708.56  E(vib)   ...       0.07 
freq.     730.66  E(vib)   ...       0.06 
freq.     732.06  E(vib)   ...       0.06 
freq.     733.64  E(vib)   ...       0.06 
freq.     738.26  E(vib)   ...       0.06 
freq.     755.54  E(vib)   ...       0.06 
freq.     763.87  E(vib)   ...       0.06 
freq.     772.17  E(vib)   ...       0.05 
freq.     775.05  E(vib)   ...       0.05 
freq.     779.04  E(vib)   ...       0.05 
freq.     794.79  E(vib)   ...       0.05 
freq.     799.84  E(vib)   ...       0.05 
freq.     802.30  E(vib)   ...       0.05 
freq.     808.15  E(vib)   ...       0.05 
freq.     812.20  E(vib)   ...       0.05 
freq.     829.15  E(vib)   ...       0.04 
freq.     834.66  E(vib)   ...       0.04 
freq.     836.03  E(vib)   ...       0.04 
freq.     837.40  E(vib)   ...       0.04 
freq.     870.32  E(vib)   ...       0.04 
freq.     874.21  E(vib)   ...       0.04 
freq.     879.64  E(vib)   ...       0.04 
freq.     885.92  E(vib)   ...       0.04 
freq.     898.51  E(vib)   ...       0.03 
freq.     910.04  E(vib)   ...       0.03 
freq.     912.92  E(vib)   ...       0.03 
freq.     914.70  E(vib)   ...       0.03 
freq.     914.89  E(vib)   ...       0.03 
freq.     918.67  E(vib)   ...       0.03 
freq.     931.89  E(vib)   ...       0.03 
freq.     937.84  E(vib)   ...       0.03 
freq.     938.94  E(vib)   ...       0.03 
freq.     949.81  E(vib)   ...       0.03 
freq.     966.40  E(vib)   ...       0.03 
freq.     967.56  E(vib)   ...       0.03 
freq.     970.43  E(vib)   ...       0.03 
freq.     974.11  E(vib)   ...       0.03 
freq.     984.09  E(vib)   ...       0.02 
freq.     985.71  E(vib)   ...       0.02 
freq.     997.31  E(vib)   ...       0.02 
freq.    1006.22  E(vib)   ...       0.02 
freq.    1009.77  E(vib)   ...       0.02 
freq.    1018.68  E(vib)   ...       0.02 
freq.    1033.47  E(vib)   ...       0.02 
freq.    1033.94  E(vib)   ...       0.02 
freq.    1038.76  E(vib)   ...       0.02 
freq.    1048.65  E(vib)   ...       0.02 
freq.    1049.17  E(vib)   ...       0.02 
freq.    1054.70  E(vib)   ...       0.02 
freq.    1059.03  E(vib)   ...       0.02 
freq.    1068.56  E(vib)   ...       0.02 
freq.    1085.75  E(vib)   ...       0.02 
freq.    1086.34  E(vib)   ...       0.02 
freq.    1105.70  E(vib)   ...       0.02 
freq.    1115.60  E(vib)   ...       0.01 
freq.    1119.57  E(vib)   ...       0.01 
freq.    1122.37  E(vib)   ...       0.01 
freq.    1146.47  E(vib)   ...       0.01 
freq.    1150.14  E(vib)   ...       0.01 
freq.    1154.10  E(vib)   ...       0.01 
freq.    1156.01  E(vib)   ...       0.01 
freq.    1158.31  E(vib)   ...       0.01 
freq.    1162.70  E(vib)   ...       0.01 
freq.    1167.29  E(vib)   ...       0.01 
freq.    1179.86  E(vib)   ...       0.01 
freq.    1180.11  E(vib)   ...       0.01 
freq.    1190.87  E(vib)   ...       0.01 
freq.    1201.34  E(vib)   ...       0.01 
freq.    1208.55  E(vib)   ...       0.01 
freq.    1223.59  E(vib)   ...       0.01 
freq.    1238.91  E(vib)   ...       0.01 
freq.    1248.56  E(vib)   ...       0.01 
freq.    1256.85  E(vib)   ...       0.01 
freq.    1281.19  E(vib)   ...       0.01 
freq.    1288.72  E(vib)   ...       0.01 
freq.    1296.61  E(vib)   ...       0.01 
freq.    1299.89  E(vib)   ...       0.01 
freq.    1301.10  E(vib)   ...       0.01 
freq.    1307.58  E(vib)   ...       0.01 
freq.    1329.26  E(vib)   ...       0.01 
freq.    1330.49  E(vib)   ...       0.01 
freq.    1336.15  E(vib)   ...       0.01 
freq.    1344.35  E(vib)   ...       0.01 
freq.    1349.21  E(vib)   ...       0.01 
freq.    1360.72  E(vib)   ...       0.01 
freq.    1362.11  E(vib)   ...       0.01 
freq.    1368.92  E(vib)   ...       0.01 
freq.    1374.01  E(vib)   ...       0.01 
freq.    1392.14  E(vib)   ...       0.00 
freq.    1416.14  E(vib)   ...       0.00 
freq.    1432.13  E(vib)   ...       0.00 
freq.    1439.83  E(vib)   ...       0.00 
freq.    1449.11  E(vib)   ...       0.00 
freq.    1456.95  E(vib)   ...       0.00 
freq.    1465.81  E(vib)   ...       0.00 
freq.    1468.29  E(vib)   ...       0.00 
freq.    1470.03  E(vib)   ...       0.00 
freq.    1473.76  E(vib)   ...       0.00 
freq.    1490.17  E(vib)   ...       0.00 
freq.    1491.10  E(vib)   ...       0.00 
freq.    1499.91  E(vib)   ...       0.00 
freq.    1502.67  E(vib)   ...       0.00 
freq.    1503.60  E(vib)   ...       0.00 
freq.    1516.58  E(vib)   ...       0.00 
freq.    1526.39  E(vib)   ...       0.00 
freq.    1538.73  E(vib)   ...       0.00 
freq.    1568.84  E(vib)   ...       0.00 
freq.    1575.82  E(vib)   ...       0.00 
freq.    1580.89  E(vib)   ...       0.00 
freq.    1589.28  E(vib)   ...       0.00 
freq.    1592.32  E(vib)   ...       0.00 
freq.    1608.80  E(vib)   ...       0.00 
freq.    1609.62  E(vib)   ...       0.00 
freq.    1613.12  E(vib)   ...       0.00 
freq.    1619.36  E(vib)   ...       0.00 
freq.    1621.86  E(vib)   ...       0.00 
freq.    1634.04  E(vib)   ...       0.00 
freq.    1635.25  E(vib)   ...       0.00 
freq.    1642.06  E(vib)   ...       0.00 
freq.    2991.80  E(vib)   ...       0.00 
freq.    3074.61  E(vib)   ...       0.00 
freq.    3103.70  E(vib)   ...       0.00 
freq.    3114.98  E(vib)   ...       0.00 
freq.    3116.14  E(vib)   ...       0.00 
freq.    3118.64  E(vib)   ...       0.00 
freq.    3119.82  E(vib)   ...       0.00 
freq.    3120.40  E(vib)   ...       0.00 
freq.    3121.44  E(vib)   ...       0.00 
freq.    3121.96  E(vib)   ...       0.00 
freq.    3122.97  E(vib)   ...       0.00 
freq.    3126.40  E(vib)   ...       0.00 
freq.    3126.80  E(vib)   ...       0.00 
freq.    3127.87  E(vib)   ...       0.00 
freq.    3128.15  E(vib)   ...       0.00 
freq.    3130.14  E(vib)   ...       0.00 
freq.    3131.91  E(vib)   ...       0.00 
freq.    3132.25  E(vib)   ...       0.00 
freq.    3133.24  E(vib)   ...       0.00 
freq.    3136.22  E(vib)   ...       0.00 
freq.    3137.25  E(vib)   ...       0.00 
freq.    3137.76  E(vib)   ...       0.00 
freq.    3138.18  E(vib)   ...       0.00 
freq.    3142.03  E(vib)   ...       0.00 
freq.    3143.96  E(vib)   ...       0.00 
freq.    3144.30  E(vib)   ...       0.00 
freq.    3146.43  E(vib)   ...       0.00 
freq.    3152.75  E(vib)   ...       0.00 
freq.    3165.11  E(vib)   ...       0.00 
freq.    3176.98  E(vib)   ...       0.00 
freq.    3179.79  E(vib)   ...       0.00 

------------
INNER ENERGY
------------

The inner energy is: U= E(el) + E(ZPE) + E(vib) + E(rot) + E(trans)
    E(el)   - is the total energy from the electronic structure calculation
              = E(kin-el) + E(nuc-el) + E(el-el) + E(nuc-nuc)
    E(ZPE)  - the the zero temperature vibrational energy from the frequency calculation
    E(vib)  - the the finite temperature correction to E(ZPE) due to population
              of excited vibrational states
    E(rot)  - is the rotational thermal energy
    E(trans)- is the translational thermal energy

Summary of contributions to the inner energy U:
Electronic energy                ...  -5979.57805397 Eh
Zero point energy                ...      0.59423876 Eh     372.89 kcal/mol
Thermal vibrational correction   ...      0.03649615 Eh      22.90 kcal/mol
Thermal rotational correction    ...      0.00141627 Eh       0.89 kcal/mol
Thermal translational correction ...      0.00141627 Eh       0.89 kcal/mol
-----------------------------------------------------------------------
Total thermal energy                  -5978.94448651 Eh


Summary of corrections to the electronic energy:
(perhaps to be used in another calculation)
Total thermal correction                  0.03932870 Eh      24.68 kcal/mol
Non-thermal (ZPE) correction              0.59423876 Eh     372.89 kcal/mol
-----------------------------------------------------------------------
Total correction                          0.63356746 Eh     397.57 kcal/mol


--------
ENTHALPY
--------

The enthalpy is H = U + kB*T
                kB is Boltzmann's constant
Total free energy                 ...  -5978.94448651 Eh 
Thermal Enthalpy correction       ...      0.00094421 Eh       0.59 kcal/mol
-----------------------------------------------------------------------
Total Enthalpy                    ...  -5978.94354230 Eh


Note: Only C1 symmetry has been detected, increase convergence thresholds 
      if your molecule has a higher symmetry. Symmetry factor of 1.0 is   
      used for the rotational entropy correction. 
 

Note: Rotational entropy computed according to Herzberg 
Infrared and Raman Spectra, Chapter V,1, Van Nostrand Reinhold, 1945 
Point Group:  C1, Symmetry Number:   1  
Rotational constants in cm-1:     0.003080     0.001978     0.001756 

Vibrational entropy computed according to the QRRHO of S. Grimme
Chem.Eur.J. 2012 18 9955


-------
ENTROPY
-------

The entropy contributions are T*S = T*(S(el)+S(vib)+S(rot)+S(trans))
     S(el)   - electronic entropy
     S(vib)  - vibrational entropy
     S(rot)  - rotational entropy
     S(trans)- translational entropy
The entropies will be listed as multiplied by the temperature to get
units of energy

Electronic entropy                ...      0.00000000 Eh      0.00 kcal/mol
Vibrational entropy               ...      0.06550139 Eh     41.10 kcal/mol
Rotational entropy                ...      0.01817525 Eh     11.41 kcal/mol
Translational entropy             ...      0.02164958 Eh     13.59 kcal/mol
-----------------------------------------------------------------------
Final entropy term                ...      0.10532622 Eh     66.09 kcal/mol

In case the symmetry of your molecule has not been determined correctly
or in case you have a reason to use a different symmetry number we print 
out the resulting rotational entropy values for sn=1,12 :
 --------------------------------------------------------
|  sn= 1 | S(rot)=       0.01817525 Eh     11.41 kcal/mol|
|  sn= 2 | S(rot)=       0.01752080 Eh     10.99 kcal/mol|
|  sn= 3 | S(rot)=       0.01713796 Eh     10.75 kcal/mol|
|  sn= 4 | S(rot)=       0.01686634 Eh     10.58 kcal/mol|
|  sn= 5 | S(rot)=       0.01665565 Eh     10.45 kcal/mol|
|  sn= 6 | S(rot)=       0.01648351 Eh     10.34 kcal/mol|
|  sn= 7 | S(rot)=       0.01633796 Eh     10.25 kcal/mol|
|  sn= 8 | S(rot)=       0.01621188 Eh     10.17 kcal/mol|
|  sn= 9 | S(rot)=       0.01610067 Eh     10.10 kcal/mol|
|  sn=10 | S(rot)=       0.01600119 Eh     10.04 kcal/mol|
|  sn=11 | S(rot)=       0.01591120 Eh      9.98 kcal/mol|
|  sn=12 | S(rot)=       0.01582905 Eh      9.93 kcal/mol|
 --------------------------------------------------------


-------------------
GIBBS FREE ENERGY
-------------------

The Gibbs free energy is G = H - T*S

Total enthalpy                    ...  -5978.94354230 Eh 
Total entropy correction          ...     -0.10532622 Eh    -66.09 kcal/mol
-----------------------------------------------------------------------
Final Gibbs free energy         ...  -5979.04886852 Eh

For completeness - the Gibbs free energy minus the electronic energy
G-E(el)                           ...      0.52918544 Eh    332.07 kcal/mol


Timings for individual modules:

Sum of individual times         ...     6837.674 sec (= 113.961 min)
GTO integral calculation        ...       10.596 sec (=   0.177 min)   0.2 %
SCF iterations                  ...      191.758 sec (=   3.196 min)   2.8 %
SCF Gradient evaluation         ...       27.123 sec (=   0.452 min)   0.4 %
Geometry relaxation             ...        3.540 sec (=   0.059 min)   0.1 %
Analytical frequency calculation...     6604.657 sec (= 110.078 min)  96.6 %
                             ****ORCA TERMINATED NORMALLY****
TOTAL RUN TIME: 0 days 1 hours 54 minutes 20 seconds 992 msec
