77
backward IRC, step 0
 Br  0.75183570  2.99925849 -0.34014378
  C -2.82457488 -0.31643617 -1.90888250
  C -4.70485229 -1.34725183 -0.75520460
  C  2.61124849 -2.64852306 -1.11765234
  C  0.32049819 -1.88825544 -1.29619145
  C -3.82228396 -2.07364910  0.00276563
  C -0.03367525 -3.17114016 -1.70994649
  C -1.90826597 -1.05685935 -1.08734621
  C  2.23065097 -3.92097415 -1.50212758
  C -2.35147649  0.52358953 -2.93112756
  C -4.22403085 -0.45491258 -1.73079649
  C  1.68207715 -1.61320210 -1.01582700
  C -2.43620644 -1.94505232 -0.13106606
  C  0.90629300 -4.18039536 -1.80939014
  C -5.00871399  0.34009202  2.46953662
  C -3.32656927  2.12848887 -0.19750535
  C -3.50628516  1.48210164  1.02960350
  C -3.21466903  1.22951535 -3.72891476
  C -5.08789859  0.30274137 -2.54889514
  C -2.06289060  2.39082413 -0.68259279
  C -2.39036878  1.19683770  1.81265344
  C -0.93707848  2.00611338  0.05704171
  C -1.12121448  1.51737826  1.36162514
  C -1.78868012 -4.07480442  0.98386830
  C -1.56880614 -2.71535124  0.77373880
  C -4.59593782  1.12928526 -3.52280324
  C  3.27159311  0.14258817 -0.78334970
  C  3.81570961  0.04257079 -2.07930429
  C  4.49865560  0.76020547  3.93849576
  C  4.76102778  0.81863180  2.58455676
  C  3.19800712  0.63565877  4.39990135
  C  3.73034304  0.77195129  1.63673502
  C  4.04087937  0.81640596  0.20596814
  C -0.97176476 -4.80155998  1.82963341
  C  4.98725605  0.66260034 -2.43436707
  C -0.51947850 -2.10532380  1.45810790
  C  2.16739976  0.55463450  3.47955023
  C  2.43127842  0.62289451  2.12568434
  C  5.20338687  1.47613499 -0.20176454
  C  5.67570142  1.42169343 -1.49480385
  C  0.07954796 -4.18480918  2.48555733
  C  0.29997925 -2.83003624  2.29911825
 Cu  0.38364878  0.65080553 -0.61947607
  H -1.28058347  0.59426067 -3.07258447
  H -4.72731020  0.78543761  3.43146419
  H -5.77205527 -1.45239072 -0.61240878
  H  3.64531148 -2.44159549 -0.87173685
  H -1.06478315 -3.36677763 -1.97538236
  H -4.20063008 -2.75091133  0.76075821
  H  2.97146661 -4.70838940 -1.56384578
  H -6.07767014  0.12920471  2.47503081
  H -2.59232059 -4.57015290  0.45559112
  H -4.19881360  2.40351439 -0.76816114
  H -1.93668466  2.88745258 -1.63239117
  H -2.49479637  0.74954584  2.79337463
  H  0.60142774 -5.16831152 -2.13084429
  H -2.83607239  1.86701479 -4.51740108
  H  3.24818513 -0.51370117 -2.81417610
  H -4.45448383 -0.59211129  2.32175149
  H -6.15571455  0.21572810 -2.39094270
  H -0.27565278  1.37266488  2.01788744
  H  5.31853207  0.80035731  4.64464957
  H  5.78953352  0.87503913  2.25823486
  H -5.27200805  1.70211310 -4.14521609
  H  2.99418125  0.58732913  5.46113078
  H -1.14926588 -5.86020902  1.96907340
  H -0.34678403 -1.04880567  1.32002260
  H  5.35699163  0.58446065 -3.44897023
  H  1.14815222  0.43280202  3.82560450
  H  1.62708218  0.53032629  1.41200585
  H  5.74706593  2.06822126  0.52243142
  H  6.57404043  1.95690268 -1.77194560
  H  0.72707020 -4.75779125  3.13504153
  H  1.11953415 -2.33710404  2.80313823
  N -0.57829286 -0.84298022 -1.28613235
  N  2.01823717 -0.36434686 -0.54319129
  O -4.79940452  1.22953363  1.40154174
77
backward IRC, step 1
 Br  0.75517842  2.99610254 -0.33890972
  C -2.82658526 -0.32144773 -1.91210919
  C -4.70631403 -1.34771728 -0.75475491
  C  2.61058003 -2.64591235 -1.11664262
  C  0.31915843 -1.88726327 -1.29651189
  C -3.82391453 -2.07316462  0.00344064
  C -0.03476538 -3.16981612 -1.71054653
  C -1.91028009 -1.05770926 -1.08809870
  C  2.23052500 -3.91797582 -1.50208626
  C -2.35426059  0.51480530 -2.93763998
  C -4.22606744 -0.45788187 -1.73235979
  C  1.68028748 -1.61227344 -1.01626450
  C -2.43739595 -1.94402628 -0.13075225
  C  0.90669282 -4.17762577 -1.81049360
  C -5.00909879  0.34538335  2.46966290
  C -3.33195464  2.13231803 -0.19323935
  C -3.50952085  1.48573931  1.03109706
  C -3.21785959  1.22124836 -3.73394476
  C -5.09018010  0.29953306 -2.55020642
  C -2.07078633  2.39155333 -0.67720784
  C -2.39521414  1.20115906  1.81489559
  C -0.95010019  2.00248431  0.06499197
  C -1.12761523  1.51360438  1.36186222
  C -1.78960894 -4.07461411  0.98216444
  C -1.57015432 -2.71486384  0.77405953
  C -4.59893514  1.12427766 -3.52522903
  C  3.26731537  0.14656911 -0.78405093
  C  3.80925409  0.04828435 -2.08056038
  C  4.50010209  0.76015682  3.93796549
  C  4.76087359  0.81888299  2.58380885
  C  3.20037832  0.63446500  4.40108438
  C  3.72921065  0.77118141  1.63731647
  C  4.03775529  0.81682101  0.20589839
  C -0.97276629 -4.80197822  1.82734762
  C  4.98236784  0.66536134 -2.43540580
  C -0.52154372 -2.10537181  1.45982059
  C  2.16891229  0.55189201  3.48216939
  C  2.43157912  0.61996515  2.12817964
  C  5.20054818  1.47566980 -0.20213772
  C  5.67226117  1.42160905 -1.49536290
  C  0.07854805 -4.18596516  2.48389075
  C  0.29866612 -2.83095975  2.29947212
 Cu  0.39973434  0.65500809 -0.62073583
  H -1.28391745  0.58239687 -3.08186844
  H -4.72558738  0.79362385  3.42949395
  H -5.77339739 -1.45152321 -0.61077206
  H  3.64415296 -2.43813924 -0.86981678
  H -1.06552488 -3.36661967 -1.97605065
  H -4.20154683 -2.74930997  0.76264785
  H  2.97134158 -4.70518091 -1.56357332
  H -6.07814689  0.13555264  2.47747101
  H -2.59305681 -4.56955198  0.45319933
  H -4.20407430  2.40527775 -0.76473696
  H -1.94311697  2.88645431 -1.62658511
  H -2.49876376  0.75549977  2.79277302
  H  0.60284371 -5.16550754 -2.13247866
  H -2.83986341  1.85653604 -4.52396727
  H  3.24032956 -0.50570400 -2.81588154
  H -4.45633139 -0.58765574  2.32398792
  H -6.15772518  0.21403170 -2.39065364
  H -0.27943407  1.36564454  2.01205411
  H  5.32075117  0.80116058  4.64307318
  H  5.78898494  0.87618017  2.25667981
  H -5.27482452  1.69790203 -4.14700572
  H  2.99799162  0.58643923  5.46254042
  H -1.15029276 -5.86071494  1.96584197
  H -0.35022583 -1.04844069  1.32470902
  H  5.35157193  0.58726013 -3.45010514
  H  1.15017975  0.42916831  3.82904495
  H  1.62641243  0.52565575  1.41663655
  H  5.74534026  2.06627539  0.52199291
  H  6.57148588  1.95515273 -1.77213937
  H  0.72608448 -4.75971928  3.13264228
  H  1.11794788 -2.33845210  2.80440352
  N -0.57861421 -0.83984341 -1.28301391
  N  2.01394779 -0.36331052 -0.54367064
  O -4.80073461  1.23098546  1.39912262
77
backward IRC, step 2
 Br  0.75528333  2.99607878 -0.33890028
  C -2.82658440 -0.32148662 -1.91213095
  C -4.70631992 -1.34773229 -0.75474006
  C  2.61058227 -2.64590062 -1.11665100
  C  0.31916104 -1.88722869 -1.29649915
  C -3.82393526 -2.07315861  0.00344793
  C -0.03477886 -3.16977382 -1.71055446
  C -1.91031612 -1.05766713 -1.08807023
  C  2.23051259 -3.91796420 -1.50210352
  C -2.35430756  0.51470275 -2.93771893
  C -4.22608309 -0.45792449 -1.73237564
  C  1.68029306 -1.61231787 -1.01626599
  C -2.43738640 -1.94398968 -0.13075513
  C  0.90667607 -4.17758302 -1.81050992
  C -5.00919092  0.34544112  2.46971265
  C -3.33185631  2.13240703 -0.19322067
  C -3.50955540  1.48582766  1.03111233
  C -3.21791238  1.22110044 -3.73404208
  C -5.09020453  0.29948009 -2.55023107
  C -2.07079544  2.39139449 -0.67715238
  C -2.39521629  1.20137585  1.81485694
  C -0.95055622  2.00201944  0.06528135
  C -1.12777567  1.51360759  1.36167473
  C -1.78962268 -4.07460964  0.98213641
  C -1.57016898 -2.71485665  0.77407118
  C -4.59897324  1.12417764 -3.52528181
  C  3.26738161  0.14659880 -0.78406523
  C  3.80918045  0.04836028 -2.08057993
  C  4.50012816  0.76015590  3.93796222
  C  4.76086775  0.81888398  2.58379587
  C  3.20042534  0.63444080  4.40110046
  C  3.72918580  0.77116355  1.63733963
  C  4.03773894  0.81681979  0.20588684
  C -0.97277821 -4.80199042  1.82730308
  C  4.98230617  0.66544705 -2.43543752
  C -0.52157227 -2.10536839  1.45984647
  C  2.16894646  0.55184137  3.48221584
  C  2.43158756  0.61992041  2.12821789
  C  5.20052949  1.47567993 -0.20214712
  C  5.67220474  1.42161782 -1.49538857
  C  0.07852809 -4.18598435  2.48386257
  C  0.29863685 -2.83097505  2.29948305
 Cu  0.39985724  0.65509897 -0.62075144
  H -1.28396287  0.58229626 -3.08197329
  H -4.72567754  0.79371060  3.42954303
  H -5.77341021 -1.45151597 -0.61073870
  H  3.64415479 -2.43812397 -0.86982771
  H -1.06554086 -3.36657033 -1.97606639
  H -4.20153079 -2.74930738  0.76267622
  H  2.97132803 -4.70517210 -1.56359757
  H -6.07821478  0.13556043  2.47755481
  H -2.59306563 -4.56953603  0.45315398
  H -4.20392188  2.40549657 -0.76482593
  H -1.94323519  2.88619859 -1.62658354
  H -2.49864499  0.75521376  2.79308515
  H  0.60280609 -5.16545519 -2.13251504
  H -2.83992872  1.85636110 -4.52412277
  H  3.24022584 -0.50559550 -2.81591913
  H -4.45636604 -0.58757870  2.32409988
  H -6.15775783  0.21400174 -2.39064724
  H -0.27954133  1.36551471  2.01175726
  H  5.32079951  0.80118093  4.64305050
  H  5.78897625  0.87619936  2.25664816
  H -5.27486208  1.69780817 -4.14705820
  H  2.99805677  0.58641799  5.46256559
  H -1.15029986 -5.86073380  1.96576986
  H -0.35029614 -1.04842085  1.32479841
  H  5.35148396  0.58738023 -3.45015256
  H  1.15021258  0.42910054  3.82910511
  H  1.62632451  0.52561845  1.41675850
  H  5.74533826  2.06628048  0.52198789
  H  6.57144721  1.95515113 -1.77216579
  H  0.72607214 -4.75974575  3.13260244
  H  1.11791202 -2.33847801  2.80443359
  N -0.57855510 -0.83976941 -1.28293674
  N  2.01391061 -0.36328463 -0.54364448
  O -4.80088648  1.23101740  1.39915965
