77
forward IRC, step 0
 Br  0.58986748  2.96193975 -0.39106900
  C -2.76781976 -0.25404893 -1.85633776
  C -4.66229829 -1.33645073 -0.76742176
  C  2.63316407 -2.75649472 -1.12222264
  C  0.35984333 -1.93890084 -1.29192155
  C -3.78637334 -2.07157140 -0.00953575
  C -0.02245783 -3.21114804 -1.71136311
  C -1.85505599 -1.04460223 -1.07121107
  C  2.22376503 -4.01502507 -1.51871458
  C -2.29043417  0.64821737 -2.82008714
  C -4.16968225 -0.41135090 -1.70582625
  C  1.73192137 -1.69683790 -1.00985400
  C -2.40014248 -1.94200324 -0.12807156
  C  0.89280142 -4.24108344 -1.82428560
  C -5.03831955  0.21088944  2.44906790
  C -3.49912009  2.28934119 -0.09303341
  C -3.61668498  1.51247232  1.06218970
  C -3.14778167  1.36903693 -3.61251292
  C -5.02752927  0.35848255 -2.51793048
  C -2.26410808  2.73067961 -0.52836637
  C -2.47245864  1.20187616  1.79617810
  C -1.14167088  2.41557156  0.21592583
  C -1.23664578  1.66965610  1.38277486
  C -1.76747620 -4.06875452  1.00502442
  C -1.54080282 -2.71261058  0.78084514
  C -4.53078818  1.22501596 -3.45419420
  C  3.34883183  0.05105607 -0.77475532
  C  3.91067283 -0.05686307 -2.06521845
  C  4.47565196  0.76127383  3.94292962
  C  4.76018534  0.80402174  2.59330934
  C  3.16545374  0.66107443  4.38327361
  C  3.74459226  0.76187189  1.62913534
  C  4.08560493  0.77748744  0.20624652
  C -0.95620452 -4.78926536  1.86082067
  C  5.05882121  0.60318374 -2.42049597
  C -0.49061582 -2.09874824  1.46219892
  C  2.14728902  0.59975592  3.44699781
  C  2.43268252  0.65211345  2.09684328
  C  5.23282267  1.46080135 -0.19966242
  C  5.71651872  1.40025563 -1.48888723
  C  0.09533498 -4.16960948  2.51369257
  C  0.32241015 -2.81747088  2.31403555
 Cu  0.54668546  0.58062923 -0.73492863
  H -1.21667979  0.75589667 -2.92515563
  H -4.73936618  0.63261573  3.41558381
  H -5.73119405 -1.45559122 -0.64987662
  H  3.67223030 -2.57438729 -0.87657275
  H -1.05876307 -3.38101019 -1.97518626
  H -4.17237976 -2.76438471  0.73103141
  H  2.94611297 -4.81878896 -1.59130964
  H -6.10194232 -0.02232799  2.47375695
  H -2.57101831 -4.56671530  0.47899106
  H -4.39132774  2.51545041 -0.65375128
  H -2.17564974  3.30562714 -1.43696793
  H -2.52678653  0.59379792  2.68979381
  H  0.56419174 -5.21873748 -2.15383763
  H -2.76131687  2.04932797 -4.36066980
  H  3.37107681 -0.64695329 -2.79513290
  H -4.47017823 -0.70303585  2.25227611
  H -6.09704871  0.24650718 -2.38785946
  H -0.35681400  1.45105114  1.96956566
  H  5.28416375  0.79276677  4.66271155
  H  5.79364492  0.84257177  2.27929472
  H -5.20374009  1.80109720 -4.07733013
  H  2.94366889  0.61972571  5.44134424
  H -1.13748078 -5.84604286  2.01043194
  H -0.31027123 -1.04430645  1.31053646
  H  5.43931033  0.52308339 -3.43141245
  H  1.12034174  0.50549206  3.77977060
  H  1.63483366  0.58418199  1.37024641
  H  5.75245969  2.07900598  0.52128400
  H  6.59933399  1.95895328 -1.76969914
  H  0.73892324 -4.73872905  3.17060479
  H  1.14261163 -2.32300426  2.81573811
  N -0.52618786 -0.87663274 -1.28938737
  N  2.11683473 -0.47257054 -0.51788149
  O -4.87787398  1.14177437  1.40551414
77
forward IRC, step 1
 Br  0.58826442  2.96153992 -0.39349412
  C -2.76496571 -0.25307769 -1.85511321
  C -4.66018968 -1.33637932 -0.76836204
  C  2.63390267 -2.75909078 -1.12281052
  C  0.36070204 -1.94016364 -1.29087731
  C -3.78422160 -2.07191152 -0.01080758
  C -0.02256794 -3.21190543 -1.71074150
  C -1.85210449 -1.04348726 -1.07079918
  C  2.22339744 -4.01751151 -1.51901836
  C -2.28851090  0.64947500 -2.81798374
  C -4.16696222 -0.41035695 -1.70542266
  C  1.73278213 -1.69985401 -1.00962624
  C -2.39796132 -1.94144705 -0.12866119
  C  0.89220787 -4.24245908 -1.82366931
  C -5.03794292  0.20895802  2.44673057
  C -3.50419213  2.29868825 -0.08486877
  C -3.62117252  1.51701866  1.06496065
  C -3.14592893  1.37165525 -3.60894777
  C -5.02529933  0.35993121 -2.51680291
  C -2.27006483  2.72747943 -0.52314933
  C -2.47801850  1.20839276  1.79933387
  C -1.14275677  2.38850115  0.20783935
  C -1.24223232  1.66423600  1.38154490
  C -1.76668751 -4.06867266  1.00522283
  C -1.53957455 -2.71265393  0.78085921
  C -4.52864315  1.22781718 -3.45147445
  C  3.34927053  0.04927387 -0.77483231
  C  3.91228291 -0.05904368 -2.06441866
  C  4.47517770  0.76135273  3.94298242
  C  4.76013532  0.80331600  2.59334931
  C  3.16486658  0.66220542  4.38293584
  C  3.74469649  0.76095245  1.62916669
  C  4.08556792  0.77549486  0.20604286
  C -0.95570898 -4.78922898  1.86146118
  C  5.06039058  0.60112282 -2.41986817
  C -0.48972637 -2.09890015  1.46260198
  C  2.14704455  0.60073783  3.44642139
  C  2.43299006  0.65197568  2.09641323
  C  5.23255440  1.45938935 -0.19960818
  C  5.71700456  1.39898097 -1.48864821
  C  0.09581574 -4.16963098  2.51443292
  C  0.32293948 -2.81755337  2.31464372
 Cu  0.54851384  0.58622961 -0.73578696
  H -1.21512711  0.75622936 -2.92345845
  H -4.74108553  0.63089710  3.41371663
  H -5.72898589 -1.45566717 -0.65141922
  H  3.67321733 -2.57742316 -0.87818237
  H -1.05880481 -3.38124722 -1.97468204
  H -4.17012577 -2.76564681  0.72874483
  H  2.94531766 -4.82150026 -1.59237232
  H -6.10043389 -0.02917997  2.47110516
  H -2.57003708 -4.56671997  0.47901167
  H -4.39654481  2.53479075 -0.64071970
  H -2.18194846  3.30590614 -1.42838431
  H -2.53191326  0.60849855  2.69403836
  H  0.56280543 -5.21969257 -2.15352502
  H -2.75973779  2.05298898 -4.35563145
  H  3.37322979 -0.64901457 -2.79453071
  H -4.46564288 -0.70202520  2.24956978
  H -6.09456375  0.24725539 -2.38710837
  H -0.36220345  1.44590271  1.96590827
  H  5.28353805  0.79289719  4.66284685
  H  5.79367920  0.84124701  2.27968138
  H -5.20146524  1.80477184 -4.07387241
  H  2.94274440  0.62181943  5.44091297
  H -1.13728397 -5.84590375  2.01124994
  H -0.30978676 -1.04462892  1.31126373
  H  5.44102400  0.52057979 -3.43067305
  H  1.12000651  0.50730796  3.77844041
  H  1.63562905  0.58312133  1.36997312
  H  5.75112647  2.07807600  0.52147547
  H  6.59939059  1.95831658 -1.76930596
  H  0.73918841 -4.73865277  3.17161715
  H  1.14291643 -2.32293975  2.81652097
  N -0.52282681 -0.87587566 -1.28750132
  N  2.11479077 -0.47348034 -0.52058736
  O -4.88140778  1.14134660  1.40458644
77
forward IRC, step 2
 Br  0.58821042  2.96151867 -0.39354290
  C -2.76491439 -0.25304784 -1.85509016
  C -4.66014126 -1.33638269 -0.76837653
  C  2.63390975 -2.75912833 -1.12281658
  C  0.36071741 -1.94017779 -1.29086668
  C -3.78418094 -2.07192372 -0.01082789
  C -0.02257313 -3.21191688 -1.71072342
  C -1.85206114 -1.04346964 -1.07077979
  C  2.22338535 -4.01754625 -1.51901723
  C -2.28845762  0.64952584 -2.81794235
  C -4.16691081 -0.41033635 -1.70540795
  C  1.73280084 -1.69987862 -1.00963054
  C -2.39791862 -1.94144556 -0.12866367
  C  0.89219027 -4.24248055 -1.82365893
  C -5.03797915  0.20889305  2.44670028
  C -3.50431956  2.29880784 -0.08473041
  C -3.62129429  1.51709248  1.06502378
  C -3.14587443  1.37172641 -3.60888636
  C -5.02524574  0.35997032 -2.51677302
  C -2.27005856  2.72745426 -0.52314566
  C -2.47813283  1.20831249  1.79946370
  C -1.14278496  2.38820881  0.20785260
  C -1.24223532  1.66416766  1.38139849
  C -1.76666521 -4.06867314  1.00522718
  C -1.53954356 -2.71265640  0.78086187
  C -4.52859397  1.22788172 -3.45141362
  C  3.34928667  0.04924105 -0.77484208
  C  3.91231507 -0.05909740 -2.06441714
  C  4.47516756  0.76135648  3.94298086
  C  4.76013299  0.80329691  2.59335001
  C  3.16485430  0.66223101  4.38292929
  C  3.74469640  0.76092914  1.62916412
  C  4.08557385  0.77546152  0.20604061
  C -0.95569766 -4.78922835  1.86147440
  C  5.06042492  0.60107566 -2.41985757
  C -0.48970108 -2.09890293  1.46261332
  C  2.14703452  0.60075808  3.44641093
  C  2.43298746  0.65196918  2.09640460
  C  5.23255776  1.45936281 -0.19960495
  C  5.71701669  1.39894985 -1.48864031
  C  0.09582501 -4.16963293  2.51445176
  C  0.32295622 -2.81755674  2.31466300
 Cu  0.54855140  0.58631986 -0.73581199
  H -1.21506990  0.75627837 -2.92342691
  H -4.74119126  0.63080758  3.41373209
  H -5.72892663 -1.45567544 -0.65145104
  H  3.67322266 -2.57747475 -0.87820122
  H -1.05881216 -3.38125026 -1.97465722
  H -4.17008354 -2.76566610  0.72870395
  H  2.94529016 -4.82154035 -1.59237336
  H -6.10038263 -0.02933486  2.47100357
  H -2.57001109 -4.56671798  0.47900975
  H -4.39665377  2.53505818 -0.64049808
  H -2.18198655  3.30581463 -1.42817047
  H -2.53212935  0.60956269  2.69307938
  H  0.56277647 -5.21970534 -2.15350905
  H -2.75969255  2.05305866 -4.35553343
  H  3.37328205 -0.64906824 -2.79451495
  H -4.46564132 -0.70191631  2.24952148
  H -6.09450433  0.24728875 -2.38708558
  H -0.36253437  1.44584648  1.96549483
  H  5.28352310  0.79290306  4.66284922
  H  5.79367349  0.84121379  2.27968721
  H -5.20141665  1.80485159 -4.07379383
  H  2.94272814  0.62186562  5.44090207
  H -1.13727807 -5.84590056  2.01126493
  H -0.30975046 -1.04462113  1.31127499
  H  5.44107296  0.52052436 -3.43065099
  H  1.11999555  0.50734525  3.77842776
  H  1.63561360  0.58311706  1.36996139
  H  5.75111828  2.07805572  0.52147753
  H  6.59939610  1.95829241 -1.76929386
  H  0.73919001 -4.73865529  3.17164060
  H  1.14293157 -2.32294459  2.81654640
  N -0.52277540 -0.87586432 -1.28747535
  N  2.11479714 -0.47349976 -0.52061215
  O -4.88150388  1.14136291  1.40462823
