
                                 *****************
                                 * O   R   C   A *
                                 *****************

                                            #,                                       
                                            ###                                      
                                            ####                                     
                                            #####                                    
                                            ######                                   
                                           ########,                                 
                                     ,,################,,,,,                         
                               ,,#################################,,                 
                          ,,##########################################,,             
                       ,#########################################, ''#####,          
                    ,#############################################,,   '####,        
                  ,##################################################,,,,####,       
                ,###########''''           ''''###############################       
              ,#####''   ,,,,##########,,,,          '''####'''          '####       
            ,##' ,,,,###########################,,,                        '##       
           ' ,,###''''                  '''############,,,                           
         ,,##''                                '''############,,,,        ,,,,,,###''
      ,#''                                            '''#######################'''  
     '                                                          ''''####''''         
             ,#######,   #######,   ,#######,      ##                                
            ,#'     '#,  ##    ##  ,#'     '#,    #''#        ######   ,####,        
            ##       ##  ##   ,#'  ##            #'  '#       #        #'  '#        
            ##       ##  #######   ##           ,######,      #####,   #    #        
            '#,     ,#'  ##    ##  '#,     ,#' ,#      #,         ##   #,  ,#        
             '#######'   ##     ##  '#######'  #'      '#     #####' # '####'        



                  #######################################################
                  #                        -***-                        #
                  #          Department of theory and spectroscopy      #
                  #    Directorship and core code : Frank Neese         #
                  #        Max Planck Institute fuer Kohlenforschung    #
                  #                Kaiser Wilhelm Platz 1               #
                  #                 D-45470 Muelheim/Ruhr               #
                  #                      Germany                        #
                  #                                                     #
                  #                  All rights reserved                #
                  #                        -***-                        #
                  #######################################################


                         Program Version 5.0.1 -  RELEASE  -


 With contributions from (in alphabetic order):
   Daniel Aravena         : Magnetic Suceptibility
   Michael Atanasov       : Ab Initio Ligand Field Theory (pilot matlab implementation)
   Alexander A. Auer      : GIAO ZORA, VPT2 properties, NMR spectrum
   Ute Becker             : Parallelization
   Giovanni Bistoni       : ED, misc. LED, open-shell LED, HFLD
   Martin Brehm           : Molecular dynamics
   Dmytro Bykov           : SCF Hessian
   Vijay G. Chilkuri      : MRCI spin determinant printing, contributions to CSF-ICE
   Dipayan Datta          : RHF DLPNO-CCSD density
   Achintya Kumar Dutta   : EOM-CC, STEOM-CC
   Dmitry Ganyushin       : Spin-Orbit,Spin-Spin,Magnetic field MRCI
   Miquel Garcia          : C-PCM and meta-GGA Hessian, CC/C-PCM, Gaussian charge scheme
   Yang Guo               : DLPNO-NEVPT2, F12-NEVPT2, CIM, IAO-localization
   Andreas Hansen         : Spin unrestricted coupled pair/coupled cluster methods
   Benjamin Helmich-Paris : MC-RPA, TRAH-SCF, COSX integrals
   Lee Huntington         : MR-EOM, pCC
   Robert Izsak           : Overlap fitted RIJCOSX, COSX-SCS-MP3, EOM
   Marcus Kettner         : VPT2
   Christian Kollmar      : KDIIS, OOCD, Brueckner-CCSD(T), CCSD density, CASPT2, CASPT2-K
   Simone Kossmann        : Meta GGA functionals, TD-DFT gradient, OOMP2, MP2 Hessian
   Martin Krupicka        : Initial AUTO-CI
   Lucas Lang             : DCDCAS
   Marvin Lechner         : AUTO-CI (C++ implementation), FIC-MRCC
   Dagmar Lenk            : GEPOL surface, SMD
   Dimitrios Liakos       : Extrapolation schemes; Compound Job, initial MDCI parallelization
   Dimitrios Manganas     : Further ROCIS development; embedding schemes
   Dimitrios Pantazis     : SARC Basis sets
   Anastasios Papadopoulos: AUTO-CI, single reference methods and gradients
   Taras Petrenko         : DFT Hessian,TD-DFT gradient, ASA, ECA, R-Raman, ABS, FL, XAS/XES, NRVS
   Peter Pinski           : DLPNO-MP2, DLPNO-MP2 Gradient
   Christoph Reimann      : Effective Core Potentials
   Marius Retegan         : Local ZFS, SOC
   Christoph Riplinger    : Optimizer, TS searches, QM/MM, DLPNO-CCSD(T), (RO)-DLPNO pert. Triples
   Tobias Risthaus        : Range-separated hybrids, TD-DFT gradient, RPA, STAB
   Michael Roemelt        : Original ROCIS implementation
   Masaaki Saitow         : Open-shell DLPNO-CCSD energy and density
   Barbara Sandhoefer     : DKH picture change effects
   Avijit Sen             : IP-ROCIS
   Kantharuban Sivalingam : CASSCF convergence, NEVPT2, FIC-MRCI
   Bernardo de Souza      : ESD, SOC TD-DFT
   Georgi Stoychev        : AutoAux, RI-MP2 NMR, DLPNO-MP2 response
   Willem Van den Heuvel  : Paramagnetic NMR
   Boris Wezisla          : Elementary symmetry handling
   Frank Wennmohs         : Technical directorship


 We gratefully acknowledge several colleagues who have allowed us to
 interface, adapt or use parts of their codes:
   Stefan Grimme, W. Hujo, H. Kruse, P. Pracht,  : VdW corrections, initial TS optimization,
                  C. Bannwarth, S. Ehlert          DFT functionals, gCP, sTDA/sTD-DF
   Ed Valeev, F. Pavosevic, A. Kumar             : LibInt (2-el integral package), F12 methods
   Garnet Chan, S. Sharma, J. Yang, R. Olivares  : DMRG
   Ulf Ekstrom                                   : XCFun DFT Library
   Mihaly Kallay                                 : mrcc  (arbitrary order and MRCC methods)
   Jiri Pittner, Ondrej Demel                    : Mk-CCSD
   Frank Weinhold                                : gennbo (NPA and NBO analysis)
   Christopher J. Cramer and Donald G. Truhlar   : smd solvation model
   Lars Goerigk                                  : TD-DFT with DH, B97 family of functionals
   V. Asgeirsson, H. Jonsson                     : NEB implementation
   FAccTs GmbH                                   : IRC, NEB, NEB-TS, DLPNO-Multilevel, CI-OPT
                                                   MM, QMMM, 2- and 3-layer-ONIOM, Crystal-QMMM,
                                                   LR-CPCM, SF, NACMEs, symmetry and pop. for TD-DFT,
                                                   nearIR, NL-DFT gradient (VV10), updates on ESD,
                                                   ML-optimized integration grids
   S Lehtola, MJT Oliveira, MAL Marques          : LibXC Library
   Liviu Ungur et al                             : ANISO software


 Your calculation uses the libint2 library for the computation of 2-el integrals
 For citations please refer to: http://libint.valeyev.net

 Your ORCA version has been built with support for libXC version: 5.1.0
 For citations please refer to: https://tddft.org/programs/libxc/

 This ORCA versions uses:
   CBLAS   interface :  Fast vector & matrix operations
   LAPACKE interface :  Fast linear algebra routines
   SCALAPACK package :  Parallel linear algebra routines
   Shared memory     :  Shared parallel matrices
   BLAS/LAPACK       :  OpenBLAS 0.3.15  USE64BITINT DYNAMIC_ARCH NO_AFFINITY Zen SINGLE_THREADED
        Core in use  :  Zen
   Copyright (c) 2011-2014, The OpenBLAS Project


Your calculation utilizes the atom-pairwise dispersion correction
based on tight binding partial charges (D4)
Cite in your paper:
E.Caldeweyher, C.Bannwarth, S.Grimme, J.Chem.Phys., (2017), 147, 034112.
E.Caldeweyher, S.Ehlert, A.Hansen, H.Neugebauer, S.Grimme, J.Chem.Phys., (2018), in progress.
   

XCFun DFT library Copyright 2009-2010 Ulf Ekstrom and contributors.
See http://admol.org/xcfun for more information.
This is free software; see the source code for copying conditions.
There is ABSOLUTELY NO WARRANTY; not even for MERCHANTABILITY or FITNESS FOR A PARTICULAR PURPOSE.
For details see the documentation.
Scientific users of this library should cite U. Ekstrom, L. Visscher, R. Bast, A. J. Thorvaldsen and K. Ruud;
J.Chem.Theor.Comp. 2010, DOI: 10.1021/ct100117s
XCFun Version 0.99 

================================================================================

----- Orbital basis set information -----
Your calculation utilizes the basis: def2-TZVP
   F. Weigend and R. Ahlrichs, Phys. Chem. Chem. Phys. 7, 3297 (2005).

----- AuxJ basis set information -----
Your calculation utilizes the auxiliary basis: def2/J
   F. Weigend, Phys. Chem. Chem. Phys. 8, 1057 (2006).

================================================================================
                                        WARNINGS
                       Please study these warnings very carefully!
================================================================================


WARNING: your system is open-shell and RHF/RKS was chosen
  ===> : WILL SWITCH to UHF/UKS


WARNING: Geometry Optimization
  ===> : Switching off AutoStart
         For restart on a previous wavefunction, please use MOREAD

INFO   : the flag for use of the SHARK integral package has been found!

================================================================================
                                       INPUT FILE
================================================================================
NAME = /scratch/negishi/li1724/112224-HS-TS/RESULT/258/10025_2/10025_2-TSOPT.in
|  1> ! wB97X D4 def2-TZVP defgrid2 OptTS Freq
|  2> 
|  3> %scf
|  4>   MaxIter 500
|  5> end
|  6> 
|  7> %pal
|  8>   nproc 24
|  9> end
| 10> 
| 11> %maxcore 2000
| 12> 
| 13> %geom
| 14>   Calc_Hess true
| 15>   Recalc_Hess 1
| 16> end
| 17> 
| 18> %base "10025_2-TSOPT"
| 19> 
| 20> *xyz 0 2
| 21> C    0.21570760   0.38432434  -1.00298645 
| 22> C    1.99489260   0.70297556   0.57749622 
| 23> C   -0.08307752  -1.00203671  -1.27387710 
| 24> C    1.65435620   0.87370960  -0.86881131 
| 25> C   -2.75820424   0.52664622  -0.45639291 
| 26> C    2.32385839  -0.62688438   1.14539707 
| 27> C   -1.59381494  -0.30253712   0.02183179 
| 28> N   -1.52112617  -0.46307497   1.36238454 
| 29> N   -1.20770908  -1.42035154  -0.76066876 
| 30> H   -0.50524318   1.10645627  -1.35783398 
| 31> H    1.56509056   1.42827021   1.25628033 
| 32> H    0.54018777  -1.69168350  -1.84709303 
| 33> H    1.72155991   1.92585572  -1.15524435 
| 34> H    2.36095611   0.31788249  -1.50013529 
| 35> H   -2.73627203   0.64794390  -1.53589855 
| 36> H   -2.78484765   1.50459012   0.02461625 
| 37> H   -3.67010242  -0.01515032  -0.20066144 
| 38> H    2.98558706  -1.19191062   0.48470428 
| 39> H    1.41111632  -1.22280502   1.26782143 
| 40> H    2.81045013  -0.54704922   2.12129319 
| 41> H   -0.98735797  -1.23300315   1.71752683 
| 42> H   -1.73600745   0.29783212   1.98025125 
| 43> *
| 44> 
| 45>                          ****END OF INPUT****
================================================================================

                       *****************************
                       * Geometry Optimization Run *
                       *****************************

Geometry optimization settings:
Update method            Update   .... Bofill
Choice of coordinates    CoordSys .... Z-matrix Internals
Initial Hessian          InHess   .... Almoef's Model

Convergence Tolerances:
Energy Change            TolE     ....  5.0000e-06 Eh
Max. Gradient            TolMAXG  ....  3.0000e-04 Eh/bohr
RMS Gradient             TolRMSG  ....  1.0000e-04 Eh/bohr
Max. Displacement        TolMAXD  ....  4.0000e-03 bohr
RMS Displacement         TolRMSD  ....  2.0000e-03 bohr
Strict Convergence                ....  False
------------------------------------------------------------------------------
                        ORCA OPTIMIZATION COORDINATE SETUP
------------------------------------------------------------------------------

The optimization will be done in new redundant internal coordinates
Making redundant internal coordinates   ...  (new redundants) done
Following TS mode number                ...     0
Evaluating the initial hessian          ...  (Is done on the fly) done
Evaluating the coordinates              ...  done
Calculating the B-matrix                .... done
Calculating the G-matrix                .... done
Diagonalizing the G-matrix              .... done
Small eigenvalue found = 6.950e-03
Small eigenvalue found = 1.198e-02
Small eigenvalue found = 1.288e-02
The first mode is                       ....   31
The number of degrees of freedom        ....   60

    -----------------------------------------------------------------
                    Redundant Internal Coordinates


    -----------------------------------------------------------------
         Definition                    Initial Value    d2E/dq (diagonal element)
    -----------------------------------------------------------------
      1. B(C   2,C   0)                  1.4438         0.000000   
      2. B(C   3,C   1)                  1.4956         0.000000   
      3. B(C   3,C   0)                  1.5255         0.000000   
      4. B(C   5,C   1)                  1.4830         0.000000   
      5. B(C   6,C   4)                  1.5073         0.000000   
      6. B(N   7,C   6)                  1.3521         0.000000   
      7. B(N   8,C   2)                  1.3051         0.000000   
      8. B(N   8,C   6)                  1.4181         0.000000   
      9. B(H   9,C   0)                  1.0804         0.000000   
     10. B(H  10,C   1)                  1.0824         0.000000   
     11. B(H  11,C   2)                  1.0921         0.000000   
     12. B(H  12,C   3)                  1.0925         0.000000   
     13. B(H  13,C   3)                  1.0985         0.000000   
     14. B(H  14,C   4)                  1.0865         0.000000   
     15. B(H  15,C   4)                  1.0902         0.000000   
     16. B(H  16,C   4)                  1.0911         0.000000   
     17. B(H  17,C   5)                  1.0925         0.000000   
     18. B(H  18,C   5)                  1.0969         0.000000   
     19. B(H  19,C   5)                  1.0934         0.000000   
     20. B(H  20,N   7)                  1.0019         0.000000   
     21. B(H  21,N   7)                  1.0035         0.000000   
     22. A(C   2,C   0,H   9)          116.2376         0.000000   
     23. A(C   3,C   0,H   9)          116.3458         0.000000   
     24. A(C   2,C   0,C   3)          121.3112         0.000000   
     25. A(C   3,C   1,H  10)          116.0743         0.000000   
     26. A(C   5,C   1,H  10)          116.6691         0.000000   
     27. A(C   3,C   1,C   5)          121.5464         0.000000   
     28. A(C   0,C   2,H  11)          125.9256         0.000000   
     29. A(N   8,C   2,H  11)          119.7227         0.000000   
     30. A(C   0,C   2,N   8)          114.3510         0.000000   
     31. A(C   0,C   3,H  12)          110.1146         0.000000   
     32. A(H  12,C   3,H  13)          107.2797         0.000000   
     33. A(C   1,C   3,H  13)          110.5808         0.000000   
     34. A(C   0,C   3,H  13)          113.1866         0.000000   
     35. A(C   1,C   3,H  12)          110.4546         0.000000   
     36. A(C   0,C   3,C   1)          105.2573         0.000000   
     37. A(H  15,C   4,H  16)          108.7600         0.000000   
     38. A(H  14,C   4,H  16)          107.7685         0.000000   
     39. A(C   6,C   4,H  16)          107.3431         0.000000   
     40. A(H  14,C   4,H  15)          109.7992         0.000000   
     41. A(C   6,C   4,H  15)          111.8617         0.000000   
     42. A(C   6,C   4,H  14)          111.1639         0.000000   
     43. A(H  17,C   5,H  19)          107.9363         0.000000   
     44. A(C   1,C   5,H  19)          112.0263         0.000000   
     45. A(H  17,C   5,H  18)          106.8889         0.000000   
     46. A(C   1,C   5,H  18)          110.2022         0.000000   
     47. A(C   1,C   5,H  17)          111.5025         0.000000   
     48. A(H  18,C   5,H  19)          108.0810         0.000000   
     49. A(N   7,C   6,N   8)          116.0319         0.000000   
     50. A(C   4,C   6,N   8)          117.9621         0.000000   
     51. A(C   4,C   6,N   7)          114.9233         0.000000   
     52. A(H  20,N   7,H  21)          118.5902         0.000000   
     53. A(C   6,N   7,H  21)          120.5934         0.000000   
     54. A(C   6,N   7,H  20)          118.1203         0.000000   
     55. A(C   2,N   8,C   6)          101.4765         0.000000   
     56. D(H  11,C   2,C   0,C   3)    -30.7808         0.000000   
     57. D(H  11,C   2,C   0,H   9)    120.7307         0.000000   
     58. D(N   8,C   2,C   0,C   3)    148.9231         0.000000   
     59. D(N   8,C   2,C   0,H   9)    -59.5654         0.000000   
     60. D(C   1,C   3,C   0,H   9)    119.7563         0.000000   
     61. D(H  12,C   3,C   0,C   2)    152.1832         0.000000   
     62. D(C   0,C   3,C   1,H  10)    -75.2916         0.000000   
     63. D(H  13,C   3,C   0,H   9)   -119.3651         0.000000   
     64. D(H  12,C   3,C   1,H  10)     43.5367         0.000000   
     65. D(C   0,C   3,C   1,C   5)     77.1768         0.000000   
     66. D(H  13,C   3,C   1,H  10)    162.1366         0.000000   
     67. D(H  12,C   3,C   1,C   5)   -163.9949         0.000000   
     68. D(H  12,C   3,C   0,H   9)      0.7007         0.000000   
     69. D(H  13,C   3,C   1,C   5)    -45.3950         0.000000   
     70. D(C   1,C   3,C   0,C   2)    -88.7612         0.000000   
     71. D(H  13,C   3,C   0,C   2)     32.1174         0.000000   
     72. D(H  19,C   5,C   1,H  10)    -43.5624         0.000000   
     73. D(H  19,C   5,C   1,C   3)    164.1234         0.000000   
     74. D(H  18,C   5,C   1,H  10)     76.8096         0.000000   
     75. D(H  18,C   5,C   1,C   3)    -75.5046         0.000000   
     76. D(H  17,C   5,C   1,H  10)   -164.6562         0.000000   
     77. D(H  17,C   5,C   1,C   3)     43.0297         0.000000   
     78. D(N   8,C   6,C   4,H  16)     78.0686         0.000000   
     79. D(N   8,C   6,C   4,H  15)   -162.7007         0.000000   
     80. D(N   8,C   6,C   4,H  14)    -39.5597         0.000000   
     81. D(N   7,C   6,C   4,H  16)    -64.5472         0.000000   
     82. D(N   7,C   6,C   4,H  15)     54.6835         0.000000   
     83. D(N   7,C   6,C   4,H  14)    177.8245         0.000000   
     84. D(H  21,N   7,C   6,C   4)    -39.5789         0.000000   
     85. D(H  20,N   7,C   6,N   8)     15.9268         0.000000   
     86. D(H  20,N   7,C   6,C   4)    159.2841         0.000000   
     87. D(H  21,N   7,C   6,N   8)    177.0639         0.000000   
     88. D(C   2,N   8,C   6,N   7)   -109.5246         0.000000   
     89. D(C   2,N   8,C   6,C   4)    108.2662         0.000000   
     90. D(C   6,N   8,C   2,H  11)    172.6978         0.000000   
     91. D(C   6,N   8,C   2,C   0)     -7.0262         0.000000   
    -----------------------------------------------------------------

Number of atoms                         .... 22
Number of degrees of freedom            .... 91

         *************************************************************
         *                GEOMETRY OPTIMIZATION CYCLE   1            *
         *************************************************************
---------------------------------
CARTESIAN COORDINATES (ANGSTROEM)
---------------------------------
  C      0.215708    0.384324   -1.002986
  C      1.994893    0.702976    0.577496
  C     -0.083078   -1.002037   -1.273877
  C      1.654356    0.873710   -0.868811
  C     -2.758204    0.526646   -0.456393
  C      2.323858   -0.626884    1.145397
  C     -1.593815   -0.302537    0.021832
  N     -1.521126   -0.463075    1.362385
  N     -1.207709   -1.420352   -0.760669
  H     -0.505243    1.106456   -1.357834
  H      1.565091    1.428270    1.256280
  H      0.540188   -1.691683   -1.847093
  H      1.721560    1.925856   -1.155244
  H      2.360956    0.317882   -1.500135
  H     -2.736272    0.647944   -1.535899
  H     -2.784848    1.504590    0.024616
  H     -3.670102   -0.015150   -0.200661
  H      2.985587   -1.191911    0.484704
  H      1.411116   -1.222805    1.267821
  H      2.810450   -0.547049    2.121293
  H     -0.987358   -1.233003    1.717527
  H     -1.736007    0.297832    1.980251

----------------------------
CARTESIAN COORDINATES (A.U.)
----------------------------
  NO LB      ZA    FRAG     MASS         X           Y           Z
   0 C     6.0000    0    12.011    0.407628    0.726268   -1.895370
   1 C     6.0000    0    12.011    3.769801    1.328431    1.091310
   2 C     6.0000    0    12.011   -0.156994   -1.893575   -2.407279
   3 C     6.0000    0    12.011    3.126280    1.651072   -1.641815
   4 C     6.0000    0    12.011   -5.212251    0.995217   -0.862458
   5 C     6.0000    0    12.011    4.391456   -1.184640    2.164487
   6 C     6.0000    0    12.011   -3.011874   -0.571712    0.041256
   7 N     7.0000    0    14.007   -2.874512   -0.875085    2.574534
   8 N     7.0000    0    14.007   -2.282239   -2.684075   -1.437456
   9 H     1.0000    0     1.008   -0.954771    2.090899   -2.565934
  10 H     1.0000    0     1.008    2.957593    2.699040    2.374026
  11 H     1.0000    0     1.008    1.020807   -3.196819   -3.490500
  12 H     1.0000    0     1.008    3.253277    3.639340   -2.183095
  13 H     1.0000    0     1.008    4.461560    0.600711   -2.834845
  14 H     1.0000    0     1.008   -5.170805    1.224437   -2.902428
  15 H     1.0000    0     1.008   -5.262599    2.843263    0.046518
  16 H     1.0000    0     1.008   -6.935488   -0.028630   -0.379195
  17 H     1.0000    0     1.008    5.641942   -2.252385    0.915958
  18 H     1.0000    0     1.008    2.666623   -2.310767    2.395835
  19 H     1.0000    0     1.008    5.310981   -1.033773    4.008663
  20 H     1.0000    0     1.008   -1.865836   -2.330038    3.245655
  21 H     1.0000    0     1.008   -3.280579    0.562821    3.742133

--------------------------------
INTERNAL COORDINATES (ANGSTROEM)
--------------------------------
 C      0   0   0     0.000000000000     0.00000000     0.00000000
 C      1   0   0     2.401033805344     0.00000000     0.00000000
 C      1   2   0     1.443832141611   113.84573198     0.00000000
 C      2   1   3     1.495633853413    37.80425100   110.95275267
 C      1   2   3     3.027073115666   127.07754489    99.42168436
 C      2   1   3     1.482989321080   107.30374180   351.45248096
 C      5   1   2     1.507330858497    43.32333137   299.51180658
 N      7   5   1     1.352086437362   114.92325614   133.35934270
 N      3   1   2     1.305054114967   114.35096661   107.85992059
 H      1   2   3     1.080352405956   128.46183042   165.55834699
 H      2   1   3     1.082372390121   101.97524522   228.31497408
 H      3   1   2     1.092084620843   125.92564747   288.15598471
 H      4   2   1     1.092507063077   110.45458079   118.82833279
 H      4   2   1     1.098543206590   110.58080491   237.42819471
 H      5   1   2     1.086520398244    78.81456712   161.26152426
 H      5   1   2     1.090162352518    98.38701809    52.60692959
 H      5   1   2     1.091100529828   147.14619328   266.76053550
 H      6   2   1     1.092544940653   111.50253389    81.78604095
 H      6   2   1     1.096908026886   110.20215390   323.25177331
 H      6   2   1     1.093397645525   112.02634463   202.87977480
 H      8   7   5     1.001910145590   118.12029735   159.28406714
 H      8   7   5     1.003450464863   120.59343734   320.42111036

---------------------------
INTERNAL COORDINATES (A.U.)
---------------------------
 C      0   0   0     0.000000000000     0.00000000     0.00000000
 C      1   0   0     4.537296330386     0.00000000     0.00000000
 C      1   2   0     2.728447330997   113.84573198     0.00000000
 C      2   1   3     2.826338379571    37.80425100   110.95275267
 C      1   2   3     5.720339175965   127.07754489    99.42168436
 C      2   1   3     2.802443676371   107.30374180   351.45248096
 C      5   1   2     2.848442515768    43.32333137   299.51180658
 N      7   5   1     2.555073076004   114.92325614   133.35934270
 N      3   1   2     2.466194867234   114.35096661   107.85992059
 H      1   2   3     2.041570175380   128.46183042   165.55834699
 H      2   1   3     2.045387392246   101.97524522   228.31497408
 H      3   1   2     2.063740848461   125.92564747   288.15598471
 H      4   2   1     2.064539148590   110.45458079   118.82833279
 H      4   2   1     2.075945806736   110.58080491   237.42819471
 H      5   1   2     2.053225991601    78.81456712   161.26152426
 H      5   1   2     2.060108287770    98.38701809    52.60692959
 H      5   1   2     2.061881185952   147.14619328   266.76053550
 H      6   2   1     2.064610726835   111.50253389    81.78604095
 H      6   2   1     2.072855764915   110.20215390   323.25177331
 H      6   2   1     2.066222105516   112.02634463   202.87977480
 H      8   7   5     1.893335785962   118.12029735   159.28406714
 H      8   7   5     1.896246567546   120.59343734   320.42111036

---------------------
BASIS SET INFORMATION
---------------------
There are 3 groups of distinct atoms

 Group   1 Type C   : 11s6p2d1f contracted to 5s3p2d1f pattern {62111/411/11/1}
 Group   2 Type N   : 11s6p2d1f contracted to 5s3p2d1f pattern {62111/411/11/1}
 Group   3 Type H   : 5s1p contracted to 3s1p pattern {311/1}

Atom   0C    basis set group =>   1
Atom   1C    basis set group =>   1
Atom   2C    basis set group =>   1
Atom   3C    basis set group =>   1
Atom   4C    basis set group =>   1
Atom   5C    basis set group =>   1
Atom   6C    basis set group =>   1
Atom   7N    basis set group =>   2
Atom   8N    basis set group =>   2
Atom   9H    basis set group =>   3
Atom  10H    basis set group =>   3
Atom  11H    basis set group =>   3
Atom  12H    basis set group =>   3
Atom  13H    basis set group =>   3
Atom  14H    basis set group =>   3
Atom  15H    basis set group =>   3
Atom  16H    basis set group =>   3
Atom  17H    basis set group =>   3
Atom  18H    basis set group =>   3
Atom  19H    basis set group =>   3
Atom  20H    basis set group =>   3
Atom  21H    basis set group =>   3
---------------------------------
AUXILIARY/J BASIS SET INFORMATION
---------------------------------
There are 3 groups of distinct atoms

 Group   1 Type C   : 12s5p4d2f1g contracted to 6s4p3d1f1g pattern {711111/2111/211/2/1}
 Group   2 Type N   : 12s5p4d2f1g contracted to 6s4p3d1f1g pattern {711111/2111/211/2/1}
 Group   3 Type H   : 5s2p1d contracted to 3s1p1d pattern {311/2/1}

Atom   0C    basis set group =>   1
Atom   1C    basis set group =>   1
Atom   2C    basis set group =>   1
Atom   3C    basis set group =>   1
Atom   4C    basis set group =>   1
Atom   5C    basis set group =>   1
Atom   6C    basis set group =>   1
Atom   7N    basis set group =>   2
Atom   8N    basis set group =>   2
Atom   9H    basis set group =>   3
Atom  10H    basis set group =>   3
Atom  11H    basis set group =>   3
Atom  12H    basis set group =>   3
Atom  13H    basis set group =>   3
Atom  14H    basis set group =>   3
Atom  15H    basis set group =>   3
Atom  16H    basis set group =>   3
Atom  17H    basis set group =>   3
Atom  18H    basis set group =>   3
Atom  19H    basis set group =>   3
Atom  20H    basis set group =>   3
Atom  21H    basis set group =>   3


           ************************************************************
           *        Program running with 24 parallel MPI-processes    *
           *              working on a common directory               *
           ************************************************************
------------------------------------------------------------------------------
                           ORCA GTO INTEGRAL CALCULATION
                           -- RI-GTO INTEGRALS CHOSEN --
------------------------------------------------------------------------------
------------------------------------------------------------------------------
                   ___                                                        
                  /   \      - P O W E R E D   B Y -                         
                 /     \                                                     
                 |  |  |   _    _      __       _____    __    __             
                 |  |  |  | |  | |    /  \     |  _  \  |  |  /  |          
                  \  \/   | |  | |   /    \    | | | |  |  | /  /          
                 / \  \   | |__| |  /  /\  \   | |_| |  |  |/  /          
                |  |  |   |  __  | /  /__\  \  |    /   |      \           
                |  |  |   | |  | | |   __   |  |    \   |  |\   \          
                \     /   | |  | | |  |  |  |  | |\  \  |  | \   \       
                 \___/    |_|  |_| |__|  |__|  |_| \__\ |__|  \__/        
                                                                              
                      - O R C A' S   B I G   F R I E N D -                    
                                      &                                       
                       - I N T E G R A L  F E E D E R -                       
                                                                              
 v1 FN, 2020, v2 2021                                                         
------------------------------------------------------------------------------


Reading SHARK input file 10025_2-TSOPT.SHARKINP.tmp ... ok
----------------------
SHARK INTEGRAL PACKAGE
----------------------

Number of atoms                             ...     22
Number of basis functions                   ...    357
Number of shells                            ...    151
Maximum angular momentum                    ...      3
Integral batch strategy                     ... SHARK/LIBINT Hybrid
RI-J (if used) integral strategy            ... SPLIT-RIJ (Revised 2003 algorithm where possible)
Printlevel                                  ...      1
Contraction scheme used                     ... SEGMENTED contraction
Coulomb Range Separation                    ... NOT USED
Exchange Range Separation                   ... Long Range
   Mu parameter                             ...  0.300000
   Scaling (regular/separated)              ...  0.157706  0.842294
Finite Nucleus Model                        ... NOT USED
Auxiliary Coulomb fitting basis             ... AVAILABLE
   # of basis functions in Aux-J            ...    584
   # of shells in Aux-J                     ...    200
   Maximum angular momentum in Aux-J        ...      4
Auxiliary J/K fitting basis                 ... NOT available
Auxiliary Correlation fitting basis         ... NOT available
Auxiliary 'external' fitting basis          ... NOT available
Integral threshold                          ...     2.500000e-11
Primitive cut-off                           ...     2.500000e-12
Primitive pair pre-selection threshold      ...     2.500000e-12

Calculating pre-screening integrals         ... done (  0.1 sec) Dimension = 151
Organizing shell pair data                  ... done (  0.1 sec)
Shell pair information
Total number of shell pairs                 ...     11476
Shell pairs after pre-screening             ...     10369
Total number of primitive shell pairs       ...     33648
Primitive shell pairs kept                  ...     22390
          la=0 lb=0:   3117 shell pairs
          la=1 lb=0:   3042 shell pairs
          la=1 lb=1:    768 shell pairs
          la=2 lb=0:   1378 shell pairs
          la=2 lb=1:    681 shell pairs
          la=2 lb=2:    163 shell pairs
          la=3 lb=0:    677 shell pairs
          la=3 lb=1:    341 shell pairs
          la=3 lb=2:    158 shell pairs
          la=3 lb=3:     44 shell pairs

Calculating one electron integrals          ... done (  0.0 sec)
Calculating RI/J V-Matrix + Cholesky decomp.... done (  0.1 sec)
Calculating Nuclear repulsion               ... done (  0.0 sec) ENN=    452.848541268566 Eh

SHARK setup successfully completed in   0.4 seconds

Maximum memory used throughout the entire GTOINT-calculation: 17.7 MB


           ************************************************************
           *        Program running with 24 parallel MPI-processes    *
           *              working on a common directory               *
           ************************************************************
-------------------------------------------------------------------------------
                                 ORCA SCF
-------------------------------------------------------------------------------

------------
SCF SETTINGS
------------
Hamiltonian:
 Density Functional     Method          .... DFT(GTOs)
 Exchange Functional    Exchange        .... WB97X
 Correlation Functional Correlation     .... WB97X
 Gradients option       PostSCFGGA      .... off
 Hybrid DFT is turned on
   Fraction HF Exchange ScalHFX         ....  0.157706
   Scaling of DF-GGA-X  ScalDFX         ....  0.000000
   Scaling of DF-GGA-C  ScalDFC         ....  1.000000
   Scaling of DF-LDA-C  ScalLDAC        ....  1.000000
   Perturbative correction              ....  0.000000
   Density functional embedding theory  .... OFF
 Long-range corrected/Screened/Range-Separated Hybrid DFT is turned on
   Amount of maximum screened exact exchange              ....  0.842294
   Range separation parameter mu (erf(mu*r12)/r12)        ....  0.300000
 RI-approximation to the Coulomb term is turned on
   Number of AuxJ basis functions       .... 584
   RIJ-COSX (HFX calculated with COS-X)).... on


General Settings:
 Integral files         IntName         .... 10025_2-TSOPT
 Hartree-Fock type      HFTyp           .... UHF
 Total Charge           Charge          ....    0
 Multiplicity           Mult            ....    2
 Number of Electrons    NEL             ....   69
 Basis Dimension        Dim             ....  357
 Nuclear Repulsion      ENuc            ....    452.8485412686 Eh

Convergence Acceleration:
 DIIS                   CNVDIIS         .... on
   Start iteration      DIISMaxIt       ....    12
   Startup error        DIISStart       ....  0.200000
   # of expansion vecs  DIISMaxEq       ....     5
   Bias factor          DIISBfac        ....   1.050
   Max. coefficient     DIISMaxC        ....  10.000
 Trust-Rad. Augm. Hess. CNVTRAH         .... auto
   Auto Start mean grad. ratio tolernc. ....  1.125000
   Auto Start start iteration           ....    20
   Auto Start num. interpolation iter.  ....    10
   Max. Number of Micro iterations      ....    16
   Max. Number of Macro iterations      .... Maxiter - #DIIS iter
   Number of Davidson start vectors     ....     2
   Converg. threshold I  (grad. norm)   ....   1.000e-05
   Converg. threshold II (energy diff.) ....   1.000e-08
   Grad. Scal. Fac. for Micro threshold ....   0.100
   Minimum threshold for Micro iter.    ....   0.010
   NR start threshold (gradient norm)   ....   0.001
   Initial trust radius                 ....   0.400
   Minimum AH scaling param. (alpha)    ....   1.000
   Maximum AH scaling param. (alpha)    .... 1000.000
   Orbital update algorithm             .... Taylor
   White noise on init. David. guess    .... on
   Maximum white noise                  ....   0.010
   Quad. conv. algorithm                .... NR
 SOSCF                  CNVSOSCF        .... off
 Level Shifting         CNVShift        .... on
   Level shift para.    LevelShift      ....    0.2500
   Turn off err/grad.   ShiftErr        ....    0.0010
 Zerner damping         CNVZerner       .... off
 Static damping         CNVDamp         .... on
   Fraction old density DampFac         ....    0.7000
   Max. Damping (<1)    DampMax         ....    0.9800
   Min. Damping (>=0)   DampMin         ....    0.0000
   Turn off err/grad.   DampErr         ....    0.1000
 Fernandez-Rico         CNVRico         .... off

SCF Procedure:
 Maximum # iterations   MaxIter         ....   500
 SCF integral mode      SCFMode         .... Direct
   Integral package                     .... SHARK and LIBINT hybrid scheme
 Reset frequency        DirectResetFreq ....    20
 Integral Threshold     Thresh          ....  2.500e-11 Eh
 Primitive CutOff       TCut            ....  2.500e-12 Eh

Convergence Tolerance:
 Convergence Check Mode ConvCheckMode   .... Total+1el-Energy
 Convergence forced     ConvForced      .... 0
 Energy Change          TolE            ....  1.000e-08 Eh
 1-El. energy change                    ....  1.000e-05 Eh
 DIIS Error             TolErr          ....  5.000e-07


Diagonalization of the overlap matrix:
Smallest eigenvalue                        ... 1.484e-04
Time for diagonalization                   ...    0.014 sec
Threshold for overlap eigenvalues          ... 1.000e-08
Number of eigenvalues below threshold      ... 0
Time for construction of square roots      ...    0.035 sec
Total time needed                          ...    0.051 sec

Time for model grid setup =    0.084 sec

------------------------------
INITIAL GUESS: MODEL POTENTIAL
------------------------------
Loading Hartree-Fock densities                     ... done
Calculating cut-offs                               ... done
Initializing the effective Hamiltonian             ... done
Setting up the integral package (SHARK)            ... done
Starting the Coulomb interaction                   ... done (   0.1 sec)
Reading the grid                                   ... done
Mapping shells                                     ... done
Starting the XC term evaluation                    ... done (   0.0 sec)
  promolecular density results
     # of electrons  =     68.991420420
     EX              =    -52.663620286
     EC              =     -2.257064046
     EX+EC           =    -54.920684332
Transforming the Hamiltonian                       ... done (   0.0 sec)
Diagonalizing the Hamiltonian                      ... done (   0.0 sec)
Back transforming the eigenvectors                 ... done (   0.0 sec)
Now organizing SCF variables                       ... done
                      ------------------
                      INITIAL GUESS DONE (   0.3 sec)
                      ------------------
-------------------
DFT GRID GENERATION
-------------------

General Integration Accuracy     IntAcc      ... 4.388
Radial Grid Type                 RadialGrid  ... OptM3 with GC (2021)
Angular Grid (max. ang.)         AngularGrid ... 4 (Lebedev-302)
Angular grid pruning method      GridPruning ... 4 (adaptive)
Weight generation scheme         WeightScheme... Becke
Basis function cutoff            BFCut       ... 1.0000e-11
Integration weight cutoff        WCut        ... 1.0000e-14
Angular grids for H and He will be reduced by one unit
Partially contracted basis set               ... off
Rotationally invariant grid construction     ... off

Total number of grid points                  ...    95644
Total number of batches                      ...     1507
Average number of points per batch           ...       63
Average number of grid points per atom       ...     4347
Time for grid setup =    0.404 sec

--------------------
COSX GRID GENERATION
--------------------

GRIDX 1
-------
General Integration Accuracy     IntAcc      ... 3.816
Radial Grid Type                 RadialGrid  ... OptM3 with GC (2021)
Angular Grid (max. ang.)         AngularGrid ... 1 (Lebedev-50)
Angular grid pruning method      GridPruning ... 4 (adaptive)
Weight generation scheme         WeightScheme... Becke
Basis function cutoff            BFCut       ... 1.0000e-11
Integration weight cutoff        WCut        ... 1.0000e-14
Angular grids for H and He will be reduced by one unit
Partially contracted basis set               ... on
Rotationally invariant grid construction     ... off

Total number of grid points                  ...    12246
Total number of batches                      ...      205
Average number of points per batch           ...       59
Average number of grid points per atom       ...      557
UseSFitting                                  ... on

GRIDX 2
-------
General Integration Accuracy     IntAcc      ... 4.020
Radial Grid Type                 RadialGrid  ... OptM3 with GC (2021)
Angular Grid (max. ang.)         AngularGrid ... 2 (Lebedev-110)
Angular grid pruning method      GridPruning ... 4 (adaptive)
Weight generation scheme         WeightScheme... Becke
Basis function cutoff            BFCut       ... 1.0000e-11
Integration weight cutoff        WCut        ... 1.0000e-14
Angular grids for H and He will be reduced by one unit
Partially contracted basis set               ... on
Rotationally invariant grid construction     ... off

Total number of grid points                  ...    25782
Total number of batches                      ...      414
Average number of points per batch           ...       62
Average number of grid points per atom       ...     1172
UseSFitting                                  ... on

GRIDX 3
-------
General Integration Accuracy     IntAcc      ... 4.338
Radial Grid Type                 RadialGrid  ... OptM3 with GC (2021)
Angular Grid (max. ang.)         AngularGrid ... 3 (Lebedev-194)
Angular grid pruning method      GridPruning ... 4 (adaptive)
Weight generation scheme         WeightScheme... Becke
Basis function cutoff            BFCut       ... 1.0000e-11
Integration weight cutoff        WCut        ... 1.0000e-14
Angular grids for H and He will be reduced by one unit
Partially contracted basis set               ... on
Rotationally invariant grid construction     ... off

Total number of grid points                  ...    56231
Total number of batches                      ...      888
Average number of points per batch           ...       63
Average number of grid points per atom       ...     2556
UseSFitting                                  ... on

Time for X-Grid setup             =    0.547 sec

--------------
SCF ITERATIONS
--------------
ITER       Energy         Delta-E        Max-DP      RMS-DP      [F,P]     Damp
               ***  Starting incremental Fock matrix formation  ***
  0   -383.6014121598   0.000000000000 0.02450118  0.00043931  0.2059310 0.7000
  1   -383.7349869695  -0.133574809640 0.02185262  0.00037956  0.1173531 0.7000
                               ***Turning on DIIS***
  2   -383.8046820196  -0.069695050155 0.04454435  0.00083182  0.0588028 0.0000
  3   -383.9193808792  -0.114698859604 0.01700930  0.00023662  0.0430311 0.0000
  4   -383.9374279092  -0.018047029989 0.00996732  0.00010439  0.0069093 0.0000
  5   -383.9388825812  -0.001454671982 0.00547944  0.00006252  0.0051368 0.0000
  6   -383.9395638928  -0.000681311617 0.00423559  0.00005654  0.0041197 0.0000
  7   -383.9400160197  -0.000452126850 0.00266331  0.00004606  0.0027696 0.0000
  8   -383.9402596616  -0.000243641931 0.00171384  0.00003383  0.0018399 0.0000
  9   -383.9403703332  -0.000110671573 0.00120777  0.00002439  0.0010416 0.0000
 10   -383.9404178737  -0.000047540525 0.00163597  0.00003046  0.0005870 0.0000
               *** Restarting incremental Fock matrix formation ***
                                   *** Resetting DIIS ***
 11   -383.9404644651  -0.000046591440 0.00071031  0.00000816  0.0002666 0.0000
 12   -383.9404680362  -0.000003571093 0.00028999  0.00000299  0.0002435 0.0000
 13   -383.9404696155  -0.000001579231 0.00045746  0.00000564  0.0000883 0.0000
 14   -383.9404719171  -0.000002301642 0.00033844  0.00000452  0.0000348 0.0000
 15   -383.9404733166  -0.000001399537 0.00018879  0.00000274  0.0000257 0.0000
 16   -383.9404740004  -0.000000683746 0.00019999  0.00000275  0.0000121 0.0000
 17   -383.9404745755  -0.000000575145 0.00014393  0.00000195  0.0000119 0.0000
 18   -383.9404749215  -0.000000345932 0.00015752  0.00000214  0.0000117 0.0000
 19   -383.9404752495  -0.000000328011 0.00016378  0.00000221  0.0000108 0.0000
 20   -383.9404755380  -0.000000288566 0.00017398  0.00000238  0.0000097 0.0000
 21   -383.9404757955  -0.000000257503 0.00033022  0.00000449  0.0000081 0.0000
 22   -383.9404761249  -0.000000329341 0.00016891  0.00000231  0.0000050 0.0000
 23   -383.9404762246  -0.000000099666 0.00012437  0.00000170  0.0000031 0.0000
 24   -383.9404762632  -0.000000038649 0.00008812  0.00000124  0.0000021 0.0000
 25   -383.9404762783  -0.000000015102 0.00002363  0.00000041  0.0000017 0.0000
 26   -383.9404762843  -0.000000005978 0.00001902  0.00000028  0.0000011 0.0000
                 **** Energy Check signals convergence ****

               *****************************************************
               *                     SUCCESS                       *
               *           SCF CONVERGED AFTER  27 CYCLES          *
               *****************************************************

Old exchange energy                            =    -17.586759281 Eh
New exchange energy                            =    -17.586774482 Eh
Exchange energy change after final integration =     -0.000015201 Eh
Total energy after final integration           =   -383.940491487 Eh
Final COS-X integration done in                =     2.768 sec

----------------
TOTAL SCF ENERGY
----------------

Total Energy       :         -383.94049149 Eh          -10447.55192 eV

Components:
Nuclear Repulsion  :          452.84854127 Eh           12322.63528 eV
Electronic Energy  :         -836.78903276 Eh          -22770.18720 eV
One Electron Energy:        -1415.34503728 Eh          -38513.49645 eV
Two Electron Energy:          578.55600453 Eh           15743.30926 eV
Max COSX asymmetry :            0.00000144 Eh               0.00004 eV

Virial components:
Potential Energy   :         -766.16178339 Eh          -20848.32203 eV
Kinetic Energy     :          382.22129190 Eh           10400.77012 eV
Virial Ratio       :            2.00449792


DFT components:
N(Alpha)           :       35.000048397115 electrons
N(Beta)            :       34.000030347091 electrons
N(Total)           :       69.000078744206 electrons
E(XC)              :      -38.998679162974 Eh       
DFET-embed. en.    :        0.000000000000 Eh       

---------------
SCF CONVERGENCE
---------------

  Last Energy change         ...   -1.2155e-09  Tolerance :   1.0000e-08
  Last MAX-Density change    ...    0.0000e+00  Tolerance :   1.0000e-07
  Last RMS-Density change    ...    0.0000e+00  Tolerance :   5.0000e-09
  Last DIIS Error            ...    8.7205e-07  Tolerance :   5.0000e-07

             **** THE GBW FILE WAS UPDATED (10025_2-TSOPT.gbw) ****
             **** DENSITY 10025_2-TSOPT.scfp WAS UPDATED ****
             **** ENERGY FILE WAS UPDATED (10025_2-TSOPT.en.tmp) ****
----------------------
UHF SPIN CONTAMINATION
----------------------

Warning: in a DFT calculation there is little theoretical justification to 
         calculate <S**2> as in Hartree-Fock theory. We will do it anyways
         but you should keep in mind that the values have only limited relevance

Expectation value of <S**2>     :     0.756973
Ideal value S*(S+1) for S=0.5   :     0.750000
Deviation                       :     0.006973

             **** THE GBW FILE WAS UPDATED (10025_2-TSOPT.gbw) ****
             **** DENSITY 10025_2-TSOPT.scfp WAS UPDATED ****
----------------
ORBITAL ENERGIES
----------------
                 SPIN UP ORBITALS
  NO   OCC          E(Eh)            E(eV) 
   0   1.0000     -14.423236      -392.4762 
   1   1.0000     -14.367007      -390.9461 
   2   1.0000     -10.369322      -282.1636 
   3   1.0000     -10.290931      -280.0305 
   4   1.0000     -10.264868      -279.3213 
   5   1.0000     -10.242769      -278.7199 
   6   1.0000     -10.242431      -278.7107 
   7   1.0000     -10.240350      -278.6541 
   8   1.0000     -10.225425      -278.2480 
   9   1.0000      -1.105677       -30.0870 
  10   1.0000      -1.026219       -27.9248 
  11   1.0000      -0.921287       -25.0695 
  12   1.0000      -0.882921       -24.0255 
  13   1.0000      -0.843761       -22.9599 
  14   1.0000      -0.779400       -21.2086 
  15   1.0000      -0.738692       -20.1008 
  16   1.0000      -0.685102       -18.6426 
  17   1.0000      -0.672828       -18.3086 
  18   1.0000      -0.656627       -17.8677 
  19   1.0000      -0.588811       -16.0224 
  20   1.0000      -0.573519       -15.6062 
  21   1.0000      -0.561277       -15.2731 
  22   1.0000      -0.538493       -14.6531 
  23   1.0000      -0.528710       -14.3869 
  24   1.0000      -0.519646       -14.1403 
  25   1.0000      -0.514449       -13.9989 
  26   1.0000      -0.500020       -13.6062 
  27   1.0000      -0.481697       -13.1076 
  28   1.0000      -0.451890       -12.2966 
  29   1.0000      -0.439020       -11.9463 
  30   1.0000      -0.436636       -11.8815 
  31   1.0000      -0.405267       -11.0279 
  32   1.0000      -0.372872       -10.1464 
  33   1.0000      -0.283178        -7.7057 
  34   1.0000      -0.241365        -6.5679 
  35   0.0000       0.046414         1.2630 
  36   0.0000       0.095652         2.6028 
  37   0.0000       0.109235         2.9724 
  38   0.0000       0.132192         3.5971 
  39   0.0000       0.148974         4.0538 
  40   0.0000       0.157930         4.2975 
  41   0.0000       0.167529         4.5587 
  42   0.0000       0.180168         4.9026 
  43   0.0000       0.188164         5.1202 
  44   0.0000       0.199022         5.4157 
  45   0.0000       0.200024         5.4429 
  46   0.0000       0.206016         5.6060 
  47   0.0000       0.215900         5.8749 
  48   0.0000       0.223080         6.0703 
  49   0.0000       0.234469         6.3802 
  50   0.0000       0.246477         6.7070 
  51   0.0000       0.258418         7.0319 
  52   0.0000       0.259353         7.0573 
  53   0.0000       0.280306         7.6275 
  54   0.0000       0.286172         7.7871 
  55   0.0000       0.291107         7.9214 
  56   0.0000       0.315620         8.5885 
  57   0.0000       0.318136         8.6569 
  58   0.0000       0.326949         8.8967 
  59   0.0000       0.334918         9.1136 
  60   0.0000       0.338293         9.2054 
  61   0.0000       0.357176         9.7192 
  62   0.0000       0.371429        10.1071 
  63   0.0000       0.380017        10.3408 
  64   0.0000       0.394082        10.7235 
  65   0.0000       0.401688        10.9305 
  66   0.0000       0.410302        11.1649 
  67   0.0000       0.411617        11.2007 
  68   0.0000       0.427164        11.6237 
  69   0.0000       0.437134        11.8950 
  70   0.0000       0.452885        12.3236 
  71   0.0000       0.463062        12.6005 
  72   0.0000       0.469900        12.7866 
  73   0.0000       0.484184        13.1753 
  74   0.0000       0.493111        13.4182 
  75   0.0000       0.506487        13.7822 
  76   0.0000       0.510948        13.9036 
  77   0.0000       0.516478        14.0541 
  78   0.0000       0.523936        14.2570 
  79   0.0000       0.534922        14.5560 
  80   0.0000       0.539253        14.6738 
  81   0.0000       0.545319        14.8389 
  82   0.0000       0.551277        15.0010 
  83   0.0000       0.557575        15.1724 
  84   0.0000       0.563638        15.3374 
  85   0.0000       0.567768        15.4497 
  86   0.0000       0.572285        15.5727 
  87   0.0000       0.584218        15.8974 
  88   0.0000       0.594680        16.1821 
  89   0.0000       0.601537        16.3687 
  90   0.0000       0.609704        16.5909 
  91   0.0000       0.617341        16.7987 
  92   0.0000       0.620879        16.8950 
  93   0.0000       0.630804        17.1650 
  94   0.0000       0.641219        17.4485 
  95   0.0000       0.673814        18.3354 
  96   0.0000       0.679373        18.4867 
  97   0.0000       0.693463        18.8701 
  98   0.0000       0.700027        19.0487 
  99   0.0000       0.714230        19.4352 
 100   0.0000       0.742464        20.2035 
 101   0.0000       0.749483        20.3945 
 102   0.0000       0.760043        20.6818 
 103   0.0000       0.772276        21.0147 
 104   0.0000       0.797502        21.7011 
 105   0.0000       0.815230        22.1835 
 106   0.0000       0.820209        22.3190 
 107   0.0000       0.859902        23.3991 
 108   0.0000       0.896446        24.3935 
 109   0.0000       0.932950        25.3869 
 110   0.0000       0.941183        25.6109 
 111   0.0000       0.946452        25.7543 
 112   0.0000       0.958176        26.0733 
 113   0.0000       0.984995        26.8031 
 114   0.0000       0.992175        26.9984 
 115   0.0000       1.019119        27.7316 
 116   0.0000       1.035288        28.1716 
 117   0.0000       1.053024        28.6542 
 118   0.0000       1.064349        28.9624 
 119   0.0000       1.072122        29.1739 
 120   0.0000       1.103345        30.0235 
 121   0.0000       1.113167        30.2908 
 122   0.0000       1.127551        30.6822 
 123   0.0000       1.137853        30.9625 
 124   0.0000       1.144022        31.1304 
 125   0.0000       1.157443        31.4956 
 126   0.0000       1.170120        31.8406 
 127   0.0000       1.186819        32.2950 
 128   0.0000       1.209669        32.9168 
 129   0.0000       1.233647        33.5692 
 130   0.0000       1.257237        34.2112 
 131   0.0000       1.265270        34.4297 
 132   0.0000       1.279326        34.8122 
 133   0.0000       1.293648        35.2020 
 134   0.0000       1.323192        36.0059 
 135   0.0000       1.330702        36.2102 
 136   0.0000       1.346566        36.6419 
 137   0.0000       1.366315        37.1793 
 138   0.0000       1.370668        37.2978 
 139   0.0000       1.407906        38.3111 
 140   0.0000       1.428646        38.8754 
 141   0.0000       1.442932        39.2642 
 142   0.0000       1.478215        40.2243 
 143   0.0000       1.483685        40.3731 
 144   0.0000       1.514729        41.2179 
 145   0.0000       1.530651        41.6511 
 146   0.0000       1.576607        42.9017 
 147   0.0000       1.589360        43.2487 
 148   0.0000       1.605614        43.6910 
 149   0.0000       1.619375        44.0654 
 150   0.0000       1.629680        44.3458 
 151   0.0000       1.636961        44.5440 
 152   0.0000       1.646743        44.8102 
 153   0.0000       1.659612        45.1603 
 154   0.0000       1.663813        45.2746 
 155   0.0000       1.679661        45.7059 
 156   0.0000       1.682732        45.7895 
 157   0.0000       1.701762        46.3073 
 158   0.0000       1.706930        46.4479 
 159   0.0000       1.720323        46.8124 
 160   0.0000       1.730398        47.0865 
 161   0.0000       1.741829        47.3976 
 162   0.0000       1.750903        47.6445 
 163   0.0000       1.765879        48.0520 
 164   0.0000       1.778331        48.3908 
 165   0.0000       1.794356        48.8269 
 166   0.0000       1.814818        49.3837 
 167   0.0000       1.822385        49.5896 
 168   0.0000       1.836201        49.9656 
 169   0.0000       1.857674        50.5499 
 170   0.0000       1.865954        50.7752 
 171   0.0000       1.888965        51.4013 
 172   0.0000       1.935159        52.6584 
 173   0.0000       1.952730        53.1365 
 174   0.0000       1.960336        53.3435 
 175   0.0000       1.977303        53.8051 
 176   0.0000       2.003922        54.5295 
 177   0.0000       2.009861        54.6911 
 178   0.0000       2.024141        55.0797 
 179   0.0000       2.028103        55.1875 
 180   0.0000       2.055058        55.9210 
 181   0.0000       2.070656        56.3454 
 182   0.0000       2.089401        56.8555 
 183   0.0000       2.116497        57.5928 
 184   0.0000       2.122563        57.7579 
 185   0.0000       2.157943        58.7206 
 186   0.0000       2.176993        59.2390 
 187   0.0000       2.228315        60.6355 
 188   0.0000       2.234601        60.8066 
 189   0.0000       2.252829        61.3026 
 190   0.0000       2.265748        61.6541 
 191   0.0000       2.296097        62.4800 
 192   0.0000       2.302281        62.6482 
 193   0.0000       2.327779        63.3421 
 194   0.0000       2.353886        64.0525 
 195   0.0000       2.360522        64.2331 
 196   0.0000       2.363329        64.3094 
 197   0.0000       2.390956        65.0612 
 198   0.0000       2.423454        65.9455 
 199   0.0000       2.446899        66.5835 
 200   0.0000       2.457379        66.8687 
 201   0.0000       2.462943        67.0201 
 202   0.0000       2.469646        67.2025 
 203   0.0000       2.491710        67.8029 
 204   0.0000       2.496746        67.9399 
 205   0.0000       2.510797        68.3223 
 206   0.0000       2.526097        68.7386 
 207   0.0000       2.534174        68.9584 
 208   0.0000       2.549929        69.3871 
 209   0.0000       2.576829        70.1191 
 210   0.0000       2.614038        71.1316 
 211   0.0000       2.624740        71.4228 
 212   0.0000       2.627824        71.5067 
 213   0.0000       2.629975        71.5653 
 214   0.0000       2.657295        72.3087 
 215   0.0000       2.671521        72.6958 
 216   0.0000       2.678934        72.8975 
 217   0.0000       2.695055        73.3362 
 218   0.0000       2.703498        73.5659 
 219   0.0000       2.722539        74.0841 
 220   0.0000       2.734865        74.4194 
 221   0.0000       2.753895        74.9373 
 222   0.0000       2.762424        75.1694 
 223   0.0000       2.789546        75.9074 
 224   0.0000       2.806905        76.3798 
 225   0.0000       2.821826        76.7858 
 226   0.0000       2.836077        77.1736 
 227   0.0000       2.838868        77.2495 
 228   0.0000       2.851118        77.5829 
 229   0.0000       2.886747        78.5524 
 230   0.0000       2.904539        79.0365 
 231   0.0000       2.913617        79.2835 
 232   0.0000       2.914241        79.3005 
 233   0.0000       2.930623        79.7463 
 234   0.0000       2.957740        80.4842 
 235   0.0000       2.993275        81.4512 
 236   0.0000       3.018829        82.1465 
 237   0.0000       3.031371        82.4878 
 238   0.0000       3.053122        83.0797 
 239   0.0000       3.090326        84.0921 
 240   0.0000       3.092369        84.1476 
 241   0.0000       3.108912        84.5978 
 242   0.0000       3.126067        85.0646 
 243   0.0000       3.129816        85.1666 
 244   0.0000       3.150897        85.7403 
 245   0.0000       3.153687        85.8162 
 246   0.0000       3.173325        86.3506 
 247   0.0000       3.175948        86.4219 
 248   0.0000       3.197417        87.0061 
 249   0.0000       3.213419        87.4416 
 250   0.0000       3.233966        88.0007 
 251   0.0000       3.250136        88.4407 
 252   0.0000       3.260443        88.7212 
 253   0.0000       3.284622        89.3791 
 254   0.0000       3.293929        89.6324 
 255   0.0000       3.311740        90.1170 
 256   0.0000       3.329471        90.5995 
 257   0.0000       3.338353        90.8412 
 258   0.0000       3.340637        90.9034 
 259   0.0000       3.353682        91.2583 
 260   0.0000       3.387338        92.1742 
 261   0.0000       3.403592        92.6164 
 262   0.0000       3.419934        93.0611 
 263   0.0000       3.431159        93.3666 
 264   0.0000       3.444345        93.7254 
 265   0.0000       3.446777        93.7916 
 266   0.0000       3.465133        94.2911 
 267   0.0000       3.474434        94.5442 
 268   0.0000       3.497736        95.1782 
 269   0.0000       3.511899        95.5636 
 270   0.0000       3.521965        95.8375 
 271   0.0000       3.538256        96.2808 
 272   0.0000       3.554135        96.7129 
 273   0.0000       3.559535        96.8599 
 274   0.0000       3.602526        98.0297 
 275   0.0000       3.611482        98.2734 
 276   0.0000       3.617364        98.4335 
 277   0.0000       3.649834        99.3170 
 278   0.0000       3.657863        99.5355 
 279   0.0000       3.689009       100.3830 
 280   0.0000       3.722024       101.2814 
 281   0.0000       3.729275       101.4787 
 282   0.0000       3.759478       102.3006 
 283   0.0000       3.823166       104.0336 
 284   0.0000       3.840406       104.5028 
 285   0.0000       3.851615       104.8078 
 286   0.0000       3.873837       105.4125 
 287   0.0000       3.887759       105.7913 
 288   0.0000       3.925918       106.8297 
 289   0.0000       3.934723       107.0692 
 290   0.0000       3.948465       107.4432 
 291   0.0000       3.968088       107.9772 
 292   0.0000       3.997773       108.7849 
 293   0.0000       4.018099       109.3380 
 294   0.0000       4.040388       109.9446 
 295   0.0000       4.059357       110.4607 
 296   0.0000       4.076463       110.9262 
 297   0.0000       4.092826       111.3715 
 298   0.0000       4.110738       111.8589 
 299   0.0000       4.141152       112.6865 
 300   0.0000       4.152410       112.9928 
 301   0.0000       4.159519       113.1863 
 302   0.0000       4.207278       114.4859 
 303   0.0000       4.221773       114.8803 
 304   0.0000       4.298370       116.9646 
 305   0.0000       4.324115       117.6652 
 306   0.0000       4.384894       119.3190 
 307   0.0000       4.393244       119.5462 
 308   0.0000       4.430689       120.5652 
 309   0.0000       4.455721       121.2463 
 310   0.0000       4.496150       122.3465 
 311   0.0000       4.514121       122.8355 
 312   0.0000       4.521150       123.0267 
 313   0.0000       4.531543       123.3096 
 314   0.0000       4.583173       124.7145 
 315   0.0000       4.629112       125.9646 
 316   0.0000       4.637955       126.2052 
 317   0.0000       4.669569       127.0654 
 318   0.0000       4.699779       127.8875 
 319   0.0000       4.736410       128.8843 
 320   0.0000       4.737381       128.9107 
 321   0.0000       4.784729       130.1991 
 322   0.0000       4.815125       131.0262 
 323   0.0000       4.854358       132.0938 
 324   0.0000       4.858581       132.2087 
 325   0.0000       4.917750       133.8188 
 326   0.0000       4.928492       134.1111 
 327   0.0000       4.973610       135.3388 
 328   0.0000       5.014415       136.4492 
 329   0.0000       5.030476       136.8862 
 330   0.0000       5.067397       137.8909 
 331   0.0000       5.096849       138.6923 
 332   0.0000       5.181335       140.9913 
 333   0.0000       5.207423       141.7012 
 334   0.0000       5.228149       142.2652 
 335   0.0000       5.255040       142.9969 
 336   0.0000       5.316968       144.6821 
 337   0.0000       5.338256       145.2613 
 338   0.0000       5.378806       146.3647 
 339   0.0000       5.424300       147.6027 
 340   0.0000       5.472917       148.9256 
 341   0.0000       5.494397       149.5101 
 342   0.0000       5.569706       151.5594 
 343   0.0000       5.683803       154.6642 
 344   0.0000       5.744492       156.3156 
 345   0.0000       5.807683       158.0351 
 346   0.0000       5.957894       162.1225 
 347   0.0000       6.094624       165.8431 
 348   0.0000      22.377810       608.9312 
 349   0.0000      22.447964       610.8402 
 350   0.0000      22.488629       611.9467 
 351   0.0000      22.590585       614.7211 
 352   0.0000      22.671908       616.9340 
 353   0.0000      22.843268       621.5969 
 354   0.0000      23.012755       626.2089 
 355   0.0000      32.069350       872.6514 
 356   0.0000      32.451469       883.0494 

                 SPIN DOWN ORBITALS
  NO   OCC          E(Eh)            E(eV) 
   0   1.0000     -14.423155      -392.4740 
   1   1.0000     -14.366620      -390.9356 
   2   1.0000     -10.369070      -282.1567 
   3   1.0000     -10.290846      -280.0281 
   4   1.0000     -10.264830      -279.3202 
   5   1.0000     -10.243087      -278.7286 
   6   1.0000     -10.240883      -278.6686 
   7   1.0000     -10.234065      -278.4831 
   8   1.0000     -10.224761      -278.2299 
   9   1.0000      -1.104822       -30.0637 
  10   1.0000      -1.025484       -27.9048 
  11   1.0000      -0.906631       -24.6707 
  12   1.0000      -0.882192       -24.0057 
  13   1.0000      -0.838426       -22.8147 
  14   1.0000      -0.776373       -21.1262 
  15   1.0000      -0.735009       -20.0006 
  16   1.0000      -0.681530       -18.5454 
  17   1.0000      -0.658943       -17.9307 
  18   1.0000      -0.653110       -17.7720 
  19   1.0000      -0.587553       -15.9881 
  20   1.0000      -0.570661       -15.5285 
  21   1.0000      -0.557066       -15.1585 
  22   1.0000      -0.528780       -14.3888 
  23   1.0000      -0.519884       -14.1468 
  24   1.0000      -0.518771       -14.1165 
  25   1.0000      -0.511413       -13.9163 
  26   1.0000      -0.495395       -13.4804 
  27   1.0000      -0.476486       -12.9658 
  28   1.0000      -0.448743       -12.2109 
  29   1.0000      -0.433282       -11.7902 
  30   1.0000      -0.432661       -11.7733 
  31   1.0000      -0.402175       -10.9437 
  32   1.0000      -0.369650       -10.0587 
  33   1.0000      -0.255764        -6.9597 
  34   0.0000       0.047827         1.3014 
  35   0.0000       0.052253         1.4219 
  36   0.0000       0.096581         2.6281 
  37   0.0000       0.112642         3.0651 
  38   0.0000       0.133032         3.6200 
  39   0.0000       0.149233         4.0608 
  40   0.0000       0.159281         4.3342 
  41   0.0000       0.167547         4.5592 
  42   0.0000       0.180345         4.9074 
  43   0.0000       0.187925         5.1137 
  44   0.0000       0.199694         5.4340 
  45   0.0000       0.201520         5.4836 
  46   0.0000       0.206503         5.6192 
  47   0.0000       0.216773         5.8987 
  48   0.0000       0.223281         6.0758 
  49   0.0000       0.237641         6.4665 
  50   0.0000       0.247091         6.7237 
  51   0.0000       0.258421         7.0320 
  52   0.0000       0.260042         7.0761 
  53   0.0000       0.280659         7.6371 
  54   0.0000       0.286548         7.7974 
  55   0.0000       0.296026         8.0553 
  56   0.0000       0.315777         8.5927 
  57   0.0000       0.317090         8.6284 
  58   0.0000       0.326832         8.8936 
  59   0.0000       0.334832         9.1112 
  60   0.0000       0.339549         9.2396 
  61   0.0000       0.357973         9.7409 
  62   0.0000       0.371253        10.1023 
  63   0.0000       0.382543        10.4095 
  64   0.0000       0.394992        10.7483 
  65   0.0000       0.400205        10.8901 
  66   0.0000       0.409849        11.1526 
  67   0.0000       0.413556        11.2534 
  68   0.0000       0.427989        11.6462 
  69   0.0000       0.438771        11.9396 
  70   0.0000       0.453293        12.3347 
  71   0.0000       0.464037        12.6271 
  72   0.0000       0.470692        12.8082 
  73   0.0000       0.485839        13.2203 
  74   0.0000       0.493906        13.4399 
  75   0.0000       0.506665        13.7871 
  76   0.0000       0.512970        13.9586 
  77   0.0000       0.519175        14.1275 
  78   0.0000       0.524804        14.2806 
  79   0.0000       0.538956        14.6657 
  80   0.0000       0.541335        14.7305 
  81   0.0000       0.546861        14.8809 
  82   0.0000       0.553447        15.0601 
  83   0.0000       0.558750        15.2044 
  84   0.0000       0.564789        15.3687 
  85   0.0000       0.570134        15.5141 
  86   0.0000       0.574231        15.6256 
  87   0.0000       0.587307        15.9814 
  88   0.0000       0.594990        16.1905 
  89   0.0000       0.603874        16.4322 
  90   0.0000       0.610520        16.6131 
  91   0.0000       0.619689        16.8626 
  92   0.0000       0.623990        16.9796 
  93   0.0000       0.633888        17.2490 
  94   0.0000       0.642228        17.4759 
  95   0.0000       0.674310        18.3489 
  96   0.0000       0.681579        18.5467 
  97   0.0000       0.695721        18.9315 
  98   0.0000       0.703294        19.1376 
  99   0.0000       0.716666        19.5015 
 100   0.0000       0.743322        20.2268 
 101   0.0000       0.753371        20.5003 
 102   0.0000       0.762600        20.7514 
 103   0.0000       0.773343        21.0437 
 104   0.0000       0.800354        21.7787 
 105   0.0000       0.819263        22.2933 
 106   0.0000       0.823079        22.3971 
 107   0.0000       0.864873        23.5344 
 108   0.0000       0.898096        24.4384 
 109   0.0000       0.937956        25.5231 
 110   0.0000       0.942940        25.6587 
 111   0.0000       0.947271        25.7766 
 112   0.0000       0.959222        26.1018 
 113   0.0000       0.985732        26.8231 
 114   0.0000       0.994109        27.0511 
 115   0.0000       1.022528        27.8244 
 116   0.0000       1.037066        28.2200 
 117   0.0000       1.057802        28.7843 
 118   0.0000       1.066838        29.0301 
 119   0.0000       1.073746        29.2181 
 120   0.0000       1.105010        30.0689 
 121   0.0000       1.117943        30.4208 
 122   0.0000       1.131702        30.7952 
 123   0.0000       1.139950        31.0196 
 124   0.0000       1.145978        31.1837 
 125   0.0000       1.161470        31.6052 
 126   0.0000       1.173558        31.9341 
 127   0.0000       1.190680        32.4001 
 128   0.0000       1.210686        32.9444 
 129   0.0000       1.236353        33.6429 
 130   0.0000       1.260879        34.3103 
 131   0.0000       1.267551        34.4918 
 132   0.0000       1.281212        34.8635 
 133   0.0000       1.299355        35.3572 
 134   0.0000       1.326913        36.1071 
 135   0.0000       1.332521        36.2597 
 136   0.0000       1.352395        36.8005 
 137   0.0000       1.369772        37.2734 
 138   0.0000       1.373169        37.3658 
 139   0.0000       1.410389        38.3786 
 140   0.0000       1.431826        38.9620 
 141   0.0000       1.445372        39.3306 
 142   0.0000       1.479396        40.2564 
 143   0.0000       1.484189        40.3868 
 144   0.0000       1.516014        41.2528 
 145   0.0000       1.531532        41.6751 
 146   0.0000       1.577627        42.9294 
 147   0.0000       1.593382        43.3581 
 148   0.0000       1.611198        43.8429 
 149   0.0000       1.622845        44.1599 
 150   0.0000       1.631908        44.4065 
 151   0.0000       1.640026        44.6274 
 152   0.0000       1.649698        44.8906 
 153   0.0000       1.664582        45.2956 
 154   0.0000       1.672579        45.5132 
 155   0.0000       1.681412        45.7536 
 156   0.0000       1.685778        45.8723 
 157   0.0000       1.703195        46.3463 
 158   0.0000       1.709209        46.5099 
 159   0.0000       1.721139        46.8346 
 160   0.0000       1.731567        47.1183 
 161   0.0000       1.745532        47.4983 
 162   0.0000       1.754668        47.7469 
 163   0.0000       1.769065        48.1387 
 164   0.0000       1.778858        48.4052 
 165   0.0000       1.797363        48.9087 
 166   0.0000       1.820944        49.5504 
 167   0.0000       1.825608        49.6773 
 168   0.0000       1.839121        50.0450 
 169   0.0000       1.858680        50.5773 
 170   0.0000       1.868764        50.8517 
 171   0.0000       1.891019        51.4572 
 172   0.0000       1.939660        52.7808 
 173   0.0000       1.954220        53.1770 
 174   0.0000       1.961071        53.3635 
 175   0.0000       1.981520        53.9199 
 176   0.0000       2.005002        54.5589 
 177   0.0000       2.011599        54.7384 
 178   0.0000       2.025475        55.1160 
 179   0.0000       2.032944        55.3192 
 180   0.0000       2.057488        55.9871 
 181   0.0000       2.071790        56.3763 
 182   0.0000       2.091653        56.9168 
 183   0.0000       2.119826        57.6834 
 184   0.0000       2.125695        57.8431 
 185   0.0000       2.165017        58.9131 
 186   0.0000       2.180434        59.3326 
 187   0.0000       2.228999        60.6541 
 188   0.0000       2.236502        60.8583 
 189   0.0000       2.255833        61.3843 
 190   0.0000       2.267952        61.7141 
 191   0.0000       2.300642        62.6036 
 192   0.0000       2.308001        62.8039 
 193   0.0000       2.337969        63.6194 
 194   0.0000       2.355152        64.0869 
 195   0.0000       2.362576        64.2890 
 196   0.0000       2.369606        64.4803 
 197   0.0000       2.393376        65.1271 
 198   0.0000       2.425678        66.0061 
 199   0.0000       2.448040        66.6146 
 200   0.0000       2.459788        66.9342 
 201   0.0000       2.464510        67.0627 
 202   0.0000       2.471691        67.2581 
 203   0.0000       2.494709        67.8845 
 204   0.0000       2.498618        67.9908 
 205   0.0000       2.514048        68.4107 
 206   0.0000       2.532032        68.9001 
 207   0.0000       2.536460        69.0206 
 208   0.0000       2.551900        69.4407 
 209   0.0000       2.578787        70.1724 
 210   0.0000       2.618826        71.2619 
 211   0.0000       2.627540        71.4990 
 212   0.0000       2.629971        71.5652 
 213   0.0000       2.633367        71.6576 
 214   0.0000       2.659931        72.3804 
 215   0.0000       2.672930        72.7341 
 216   0.0000       2.681567        72.9691 
 217   0.0000       2.698128        73.4198 
 218   0.0000       2.704761        73.6003 
 219   0.0000       2.725791        74.1725 
 220   0.0000       2.737474        74.4904 
 221   0.0000       2.756485        75.0078 
 222   0.0000       2.764044        75.2134 
 223   0.0000       2.791425        75.9585 
 224   0.0000       2.810223        76.4701 
 225   0.0000       2.823480        76.8308 
 226   0.0000       2.843882        77.3860 
 227   0.0000       2.847020        77.4714 
 228   0.0000       2.858113        77.7732 
 229   0.0000       2.889417        78.6250 
 230   0.0000       2.905887        79.0732 
 231   0.0000       2.915840        79.3441 
 232   0.0000       2.916147        79.3524 
 233   0.0000       2.935980        79.8921 
 234   0.0000       2.964585        80.6705 
 235   0.0000       2.994193        81.4761 
 236   0.0000       3.021218        82.2115 
 237   0.0000       3.042172        82.7817 
 238   0.0000       3.058551        83.2274 
 239   0.0000       3.091533        84.1249 
 240   0.0000       3.093696        84.1838 
 241   0.0000       3.114249        84.7430 
 242   0.0000       3.129769        85.1654 
 243   0.0000       3.135899        85.3322 
 244   0.0000       3.154612        85.8413 
 245   0.0000       3.158458        85.9460 
 246   0.0000       3.177591        86.4666 
 247   0.0000       3.194648        86.9308 
 248   0.0000       3.201093        87.1062 
 249   0.0000       3.216884        87.5359 
 250   0.0000       3.236780        88.0773 
 251   0.0000       3.253689        88.5374 
 252   0.0000       3.264111        88.8210 
 253   0.0000       3.291250        89.5595 
 254   0.0000       3.298530        89.7576 
 255   0.0000       3.317591        90.2762 
 256   0.0000       3.334638        90.7401 
 257   0.0000       3.343155        90.9719 
 258   0.0000       3.357487        91.3619 
 259   0.0000       3.359394        91.4138 
 260   0.0000       3.396457        92.4223 
 261   0.0000       3.408613        92.7531 
 262   0.0000       3.422435        93.1292 
 263   0.0000       3.433885        93.4408 
 264   0.0000       3.447535        93.8122 
 265   0.0000       3.456357        94.0522 
 266   0.0000       3.466504        94.3284 
 267   0.0000       3.482123        94.7534 
 268   0.0000       3.502954        95.3202 
 269   0.0000       3.517577        95.7181 
 270   0.0000       3.527269        95.9819 
 271   0.0000       3.543366        96.4199 
 272   0.0000       3.556641        96.7811 
 273   0.0000       3.564429        96.9930 
 274   0.0000       3.608683        98.1973 
 275   0.0000       3.614784        98.3633 
 276   0.0000       3.620981        98.5319 
 277   0.0000       3.656675        99.5032 
 278   0.0000       3.662442        99.6601 
 279   0.0000       3.693677       100.5101 
 280   0.0000       3.724591       101.3513 
 281   0.0000       3.733959       101.6062 
 282   0.0000       3.766951       102.5039 
 283   0.0000       3.827630       104.1551 
 284   0.0000       3.844116       104.6037 
 285   0.0000       3.861083       105.0654 
 286   0.0000       3.878071       105.5277 
 287   0.0000       3.890069       105.8542 
 288   0.0000       3.932052       106.9966 
 289   0.0000       3.937495       107.1447 
 290   0.0000       3.954078       107.5959 
 291   0.0000       3.979256       108.2811 
 292   0.0000       4.000142       108.8494 
 293   0.0000       4.021900       109.4415 
 294   0.0000       4.042154       109.9926 
 295   0.0000       4.064082       110.5893 
 296   0.0000       4.081153       111.0538 
 297   0.0000       4.100286       111.5745 
 298   0.0000       4.118969       112.0828 
 299   0.0000       4.149946       112.9258 
 300   0.0000       4.155659       113.0812 
 301   0.0000       4.168465       113.4297 
 302   0.0000       4.209767       114.5536 
 303   0.0000       4.228233       115.0561 
 304   0.0000       4.303435       117.1024 
 305   0.0000       4.330527       117.8396 
 306   0.0000       4.387986       119.4032 
 307   0.0000       4.397235       119.6548 
 308   0.0000       4.434328       120.6642 
 309   0.0000       4.458158       121.3127 
 310   0.0000       4.498118       122.4000 
 311   0.0000       4.517595       122.9300 
 312   0.0000       4.522402       123.0608 
 313   0.0000       4.538746       123.5055 
 314   0.0000       4.585617       124.7810 
 315   0.0000       4.632449       126.0553 
 316   0.0000       4.641581       126.3038 
 317   0.0000       4.675134       127.2169 
 318   0.0000       4.703773       127.9962 
 319   0.0000       4.740359       128.9917 
 320   0.0000       4.743975       129.0901 
 321   0.0000       4.785457       130.2189 
 322   0.0000       4.816108       131.0530 
 323   0.0000       4.858881       132.2169 
 324   0.0000       4.860303       132.2556 
 325   0.0000       4.920881       133.9040 
 326   0.0000       4.932757       134.2271 
 327   0.0000       4.985829       135.6713 
 328   0.0000       5.018919       136.5717 
 329   0.0000       5.032471       136.9405 
 330   0.0000       5.069148       137.9385 
 331   0.0000       5.098951       138.7495 
 332   0.0000       5.184798       141.0855 
 333   0.0000       5.208837       141.7397 
 334   0.0000       5.229447       142.3005 
 335   0.0000       5.255700       143.0149 
 336   0.0000       5.317922       144.7080 
 337   0.0000       5.339415       145.2929 
 338   0.0000       5.379329       146.3790 
 339   0.0000       5.425320       147.6305 
 340   0.0000       5.473749       148.9483 
[...]
     51      -0.853930  -0.440693  -0.000530   0.002726  -0.001695  -0.103156
     52       0.144758   0.093773   0.000136  -0.000669  -0.000059   0.009862
     53       0.064370   0.036739   0.000121  -0.000351   0.001229  -0.015147
     54       0.192754  -0.368042  -0.001761   0.003140  -0.004454   0.197844
     55       0.287713  -0.634121  -0.002902   0.005985  -0.008113   0.316638
     56       0.167328  -0.371821  -0.001785   0.004525  -0.003272   0.173612
     57       0.080482  -0.059879   0.000142  -0.002711   0.003566  -0.206450
     58      -0.002866   0.005398   0.000008  -0.000808   0.000620  -0.006030
     59      -0.279451   0.329098  -0.000138   0.008955  -0.016259   0.871836
     60      -0.001040   0.002519  -0.001578   0.001296  -0.000352   0.000252
     61       0.000932  -0.004601   0.002482  -0.000454  -0.000037  -0.000962
     62       0.000316   0.000342   0.000600  -0.000169   0.000190  -0.001680
     63      -0.000425   0.000133   0.000044   0.000352  -0.000286  -0.000602
     64      -0.000455   0.000498  -0.002534   0.000839  -0.000324   0.000894
     65       0.000130   0.000021  -0.000742   0.000385  -0.000184  -0.000186
                 60         61         62         63         64         65    
      0       0.000590   0.000292   0.021945   0.047127  -0.000462   0.000015
      1      -0.000277  -0.000409  -0.024160  -0.050975   0.000575  -0.000085
      2       0.000298  -0.000180   0.014920   0.032092   0.000783  -0.000038
      3      -0.000001   0.000041  -0.001595   0.000555   0.000025  -0.000039
      4       0.000157  -0.000238   0.065065  -0.030124  -0.000034  -0.000088
      5       0.000095  -0.000135   0.041676  -0.019704   0.000055  -0.000008
      6      -0.000634   0.000462   0.000097   0.000302  -0.000691   0.000197
      7      -0.000042   0.000100   0.000957   0.001795  -0.000989  -0.000025
      8       0.000200  -0.000207   0.000503   0.000989   0.000186   0.000012
      9      -0.000059  -0.000039  -0.001656  -0.000406   0.000118  -0.000007
     10      -0.000305  -0.000040   0.003368  -0.009234   0.000100  -0.000009
     11       0.000138   0.000075  -0.002165   0.002554   0.000027  -0.000001
     12      -0.043476  -0.005968   0.000345   0.000694   0.000431   0.000338
     13      -0.080514   0.001612   0.000504   0.000585  -0.000285  -0.000041
     14      -0.003069   0.093011   0.000081  -0.000517  -0.000171   0.000075
     15      -0.000074  -0.000023   0.000286  -0.000117  -0.000210  -0.000198
     16      -0.000058  -0.000007   0.000733  -0.000194  -0.000241  -0.000192
     17       0.000026   0.000043   0.007653  -0.003540  -0.000017  -0.000057
     18      -0.002443  -0.000649  -0.000057   0.000247  -0.000568  -0.000813
     19      -0.000151   0.000171   0.000204   0.000649  -0.000119   0.001232
     20      -0.000266   0.001938   0.000309  -0.000052   0.001248  -0.000156
     21       0.000016  -0.000140  -0.000064   0.000024  -0.040886  -0.032380
     22       0.000078  -0.000081   0.000025  -0.000264  -0.006851   0.073734
     23       0.000126  -0.000569  -0.000117   0.000129  -0.036247   0.021258
     24       0.000521  -0.000163   0.000320   0.000443   0.000410   0.000015
     25      -0.000055  -0.000163  -0.000142  -0.000391   0.000107  -0.000187
     26      -0.000084  -0.000266  -0.000206  -0.000400  -0.000175  -0.000119
     27      -0.003748  -0.000904  -0.263001  -0.558445   0.001755  -0.000688
     28       0.005694   0.002612   0.277921   0.588069  -0.001026   0.000280
     29      -0.006019  -0.002490  -0.182204  -0.388099  -0.001573   0.000079
     30       0.000053  -0.000114   0.016603  -0.007170  -0.000203   0.000283
     31      -0.001726   0.002785  -0.754271   0.349101   0.000162   0.001095
     32      -0.001120   0.001770  -0.485745   0.225530  -0.000702   0.000337
     33       0.002288  -0.001834  -0.000124  -0.002012  -0.000823  -0.000027
     34      -0.001847   0.002507  -0.000912   0.001364   0.001379   0.000021
     35      -0.001928   0.002211  -0.000912  -0.000423  -0.000648   0.000313
     36       0.000557   0.000177  -0.001229   0.012799  -0.000325  -0.000069
     37       0.003681   0.000907  -0.032736   0.089817  -0.000626   0.000175
     38      -0.001363  -0.000364   0.016207  -0.032871  -0.000000  -0.000179
     39      -0.000914  -0.001010   0.010039  -0.020168  -0.000858  -0.000119
     40       0.000484   0.000370  -0.009872   0.015833   0.000408   0.000077
     41       0.000357   0.000273  -0.010652   0.015389   0.000105   0.000196
     42      -0.019870  -0.032558   0.000309   0.000957  -0.000512  -0.000498
     43       0.075753   0.286971   0.000234  -0.000902   0.000003  -0.000340
     44      -0.259880  -0.804235   0.000029   0.003783   0.000286  -0.000099
     45      -0.007250  -0.002447   0.000085  -0.000108   0.000422   0.000231
     46       0.507475  -0.387146  -0.003339  -0.000551   0.001659  -0.001204
     47       0.423875  -0.303148  -0.002355   0.000237   0.002161  -0.000877
     48       0.567082   0.113908  -0.002952  -0.007171  -0.002261  -0.000786
     49       0.378519   0.078937  -0.001959  -0.004150  -0.001555  -0.000446
     50      -0.125302  -0.007297   0.000357   0.000799   0.000758   0.000178
     51       0.000262   0.000219   0.008818  -0.003606   0.000864   0.000878
     52       0.000003  -0.000004  -0.001179   0.000256   0.000553   0.000582
     53      -0.000027  -0.000036   0.001532  -0.000824   0.000020  -0.000047
     54       0.000455   0.000022  -0.017927   0.007389  -0.000009  -0.000024
     55       0.000862   0.000120  -0.031080   0.013236   0.002326   0.002519
     56       0.000531   0.000112  -0.015954   0.006355   0.002521   0.002271
     57       0.000121   0.000164   0.013731  -0.006512   0.000403  -0.000032
     58      -0.000009  -0.000015   0.003340  -0.001637  -0.000443  -0.000331
     59      -0.000790  -0.000942  -0.066323   0.031937  -0.002215  -0.001286
     60       0.001559   0.000583   0.000585   0.000561   0.533702   0.525155
     61      -0.000033  -0.000858  -0.000363  -0.000077  -0.473294  -0.435338
     62       0.001043  -0.000795   0.000546   0.000115   0.100817   0.100702
     63       0.001191  -0.001898   0.000762   0.000249   0.046453  -0.068546
     64      -0.001755   0.002065  -0.000263   0.001342   0.576011  -0.598533
     65       0.000747  -0.000043  -0.000445   0.000976   0.379421  -0.393258


-----------
IR SPECTRUM
-----------

 Mode   freq       eps      Int      T**2         TX        TY        TZ
       cm**-1   L/(mol*cm) km/mol    a.u.
----------------------------------------------------------------------------
  7:     43.76   0.000291    1.47  0.002073  (-0.033045  0.026791 -0.016214)
  8:     87.33   0.000060    0.30  0.000214  ( 0.003352  0.013272 -0.005133)
  9:    122.81   0.001340    6.77  0.003406  ( 0.049267  0.025738 -0.017774)
 10:    142.35   0.000380    1.92  0.000832  (-0.009672  0.004394  0.026824)
 11:    155.51   0.000026    0.13  0.000053  (-0.003566 -0.003890  0.005031)
 12:    178.62   0.000469    2.37  0.000819  (-0.010441 -0.005106  0.026147)
 13:    219.90   0.006274   31.71  0.008904  (-0.088711 -0.015573  0.028138)
 14:    287.89   0.001515    7.66  0.001642  (-0.001149 -0.025736 -0.031283)
 15:    346.33   0.003048   15.40  0.002747  ( 0.033688 -0.024914 -0.031482)
 16:    360.78   0.002378   12.02  0.002057  (-0.045201 -0.003724 -0.000194)
 17:    364.47   0.002736   13.82  0.002342  ( 0.023624 -0.013578 -0.039998)
 18:    409.82   0.002389   12.07  0.001819  ( 0.020029 -0.037419  0.004179)
 19:    451.87   0.000535    2.70  0.000369  (-0.008694 -0.015814  0.006617)
 20:    504.60   0.012175   61.53  0.007529  (-0.076682 -0.003648  0.040446)
 21:    594.15   0.007957   40.21  0.004179  (-0.000867  0.020301 -0.061369)
 22:    645.40   0.025481  128.77  0.012321  (-0.064408 -0.004549  0.090285)
 23:    679.41   0.000918    4.64  0.000422  ( 0.015193  0.012557  0.005767)
 24:    753.40   0.034873  176.23  0.014445  ( 0.075841  0.059363 -0.071894)
 25:    850.09   0.004165   21.05  0.001529  ( 0.037323  0.010399  0.005263)
 26:    858.57   0.006491   32.80  0.002359  (-0.032502 -0.035425 -0.006936)
 27:    910.92   0.000431    2.18  0.000148  (-0.005067 -0.003905 -0.010332)
 28:    985.03   0.000389    1.96  0.000123  ( 0.005352 -0.006002  0.007644)
 29:    993.08   0.003777   19.09  0.001187  (-0.020352  0.010449  0.025760)
 30:   1013.00   0.006602   33.36  0.002034  (-0.043974 -0.005157  0.008563)
 31:   1032.19   0.003550   17.94  0.001073  ( 0.031724 -0.006670 -0.004730)
 32:   1057.45   0.003533   17.86  0.001043  ( 0.028120  0.010064 -0.012275)
 33:   1091.93   0.002488   12.57  0.000711  (-0.003282  0.025367  0.007529)
 34:   1108.09   0.001314    6.64  0.000370  (-0.009409 -0.016739  0.001198)
 35:   1155.40   0.000709    3.58  0.000191  (-0.009194 -0.009582  0.003888)
 36:   1216.31   0.002758   13.94  0.000708  (-0.023352 -0.012528  0.002336)
 37:   1251.28   0.005879   29.71  0.001466  (-0.031582 -0.020895 -0.005669)
 38:   1296.08   0.000477    2.41  0.000115  (-0.000160  0.002904  0.010316)
 39:   1328.35   0.000270    1.37  0.000063  (-0.003189  0.003703 -0.006293)
 40:   1354.43   0.007091   35.84  0.001634  ( 0.012729 -0.009757  0.037103)
 41:   1385.36   0.000381    1.92  0.000086  ( 0.008221  0.004127  0.001048)
 42:   1399.70   0.018271   92.33  0.004074  ( 0.019205 -0.005108 -0.060652)
 43:   1420.21   0.010954   55.36  0.002407  ( 0.041047 -0.026725  0.002812)
 44:   1422.43   0.005511   27.85  0.001209  ( 0.031751 -0.009625 -0.010410)
 45:   1438.69   0.000414    2.09  0.000090  ( 0.002406 -0.006589  0.006377)
 46:   1469.00   0.001140    5.76  0.000242  (-0.007721  0.001116  0.013469)
 47:   1476.58   0.002683   13.56  0.000567  (-0.019628  0.012948  0.003746)
 48:   1483.45   0.001278    6.46  0.000269  (-0.015565 -0.004007 -0.003234)
 49:   1493.64   0.000907    4.58  0.000189  ( 0.000291  0.008888  0.010507)
 50:   1495.86   0.002659   13.44  0.000555  ( 0.014134  0.015851 -0.010184)
 51:   1596.08   0.009718   49.11  0.001900  ( 0.029424  0.032136 -0.001225)
 52:   1650.63   0.012336   62.34  0.002332  ( 0.025209  0.001471  0.041164)
 53:   2991.89   0.008485   42.88  0.000885  (-0.022969  0.000748  0.018892)
 54:   3006.51   0.006279   31.73  0.000652  ( 0.018792 -0.016526  0.005052)
 55:   3061.49   0.004529   22.89  0.000462  ( 0.017458  0.012507  0.000682)
 56:   3073.14   0.002296   11.61  0.000233  ( 0.012814 -0.006737 -0.004858)
 57:   3097.69   0.011140   56.30  0.001122  (-0.021019  0.021788  0.014343)
 58:   3110.28   0.005093   25.74  0.000511  ( 0.006282  0.019961 -0.008551)
 59:   3118.89   0.003938   19.90  0.000394  (-0.000971 -0.002787 -0.019628)
 60:   3152.09   0.001431    7.23  0.000142  (-0.003459 -0.011292 -0.001474)
 61:   3177.77   0.001863    9.42  0.000183  (-0.000511  0.000665  0.013502)
 62:   3207.90   0.004246   21.46  0.000413  ( 0.006795  0.014893  0.012045)
 63:   3210.66   0.001058    5.35  0.000103  ( 0.004316 -0.008427  0.003633)
 64:   3586.95   0.003674   18.56  0.000320  ( 0.004742  0.000816  0.017218)
 65:   3686.99   0.003072   15.52  0.000260  ( 0.005990 -0.014610 -0.003263)

* The epsilon (eps) is given for a Dirac delta lineshape.
** The dipole moment derivative (T) already includes vibrational overlap.

The first frequency considered to be a vibration is 7
The total number of vibrations considered is 59


--------------------------
THERMOCHEMISTRY AT 298.15K
--------------------------

Temperature         ... 298.15 K
Pressure            ... 1.00 atm
Total Mass          ... 125.19 AMU

Throughout the following assumptions are being made:
  (1) The electronic state is orbitally nondegenerate
      but the spin degeneracy is treated
  (2) There are no thermally accessible electronically excited states
  (3) Hindered rotations indicated by low frequency modes are not
      treated as such but are treated as vibrations and this may
      cause some error
  (4) All equations used are the standard statistical mechanics
      equations for an ideal gas
  (5) All vibrations are strictly harmonic

freq.      43.76  E(vib)   ...       0.53 
freq.      87.33  E(vib)   ...       0.48 
freq.     122.81  E(vib)   ...       0.43 
freq.     142.35  E(vib)   ...       0.41 
freq.     155.51  E(vib)   ...       0.40 
freq.     178.62  E(vib)   ...       0.37 
freq.     219.90  E(vib)   ...       0.33 
freq.     287.89  E(vib)   ...       0.27 
freq.     346.33  E(vib)   ...       0.23 
freq.     360.78  E(vib)   ...       0.22 
freq.     364.47  E(vib)   ...       0.22 
freq.     409.82  E(vib)   ...       0.19 
freq.     451.87  E(vib)   ...       0.16 
freq.     504.60  E(vib)   ...       0.14 
freq.     594.15  E(vib)   ...       0.10 
freq.     645.40  E(vib)   ...       0.09 
freq.     679.41  E(vib)   ...       0.08 
freq.     753.40  E(vib)   ...       0.06 
freq.     850.09  E(vib)   ...       0.04 
freq.     858.57  E(vib)   ...       0.04 
freq.     910.92  E(vib)   ...       0.03 
freq.     985.03  E(vib)   ...       0.02 
freq.     993.08  E(vib)   ...       0.02 
freq.    1013.00  E(vib)   ...       0.02 
freq.    1032.19  E(vib)   ...       0.02 
freq.    1057.45  E(vib)   ...       0.02 
freq.    1091.93  E(vib)   ...       0.02 
freq.    1108.09  E(vib)   ...       0.02 
freq.    1155.40  E(vib)   ...       0.01 
freq.    1216.31  E(vib)   ...       0.01 
freq.    1251.28  E(vib)   ...       0.01 
freq.    1296.08  E(vib)   ...       0.01 
freq.    1328.35  E(vib)   ...       0.01 
freq.    1354.43  E(vib)   ...       0.01 
freq.    1385.36  E(vib)   ...       0.00 
freq.    1399.70  E(vib)   ...       0.00 
freq.    1420.21  E(vib)   ...       0.00 
freq.    1422.43  E(vib)   ...       0.00 
freq.    1438.69  E(vib)   ...       0.00 
freq.    1469.00  E(vib)   ...       0.00 
freq.    1476.58  E(vib)   ...       0.00 
freq.    1483.45  E(vib)   ...       0.00 
freq.    1493.64  E(vib)   ...       0.00 
freq.    1495.86  E(vib)   ...       0.00 
freq.    1596.08  E(vib)   ...       0.00 
freq.    1650.63  E(vib)   ...       0.00 
freq.    2991.89  E(vib)   ...       0.00 
freq.    3006.51  E(vib)   ...       0.00 
freq.    3061.49  E(vib)   ...       0.00 
freq.    3073.14  E(vib)   ...       0.00 
freq.    3097.69  E(vib)   ...       0.00 
freq.    3110.28  E(vib)   ...       0.00 
freq.    3118.89  E(vib)   ...       0.00 
freq.    3152.09  E(vib)   ...       0.00 
freq.    3177.77  E(vib)   ...       0.00 
freq.    3207.90  E(vib)   ...       0.00 
freq.    3210.66  E(vib)   ...       0.00 
freq.    3586.95  E(vib)   ...       0.00 
freq.    3686.99  E(vib)   ...       0.00 

------------
INNER ENERGY
------------

The inner energy is: U= E(el) + E(ZPE) + E(vib) + E(rot) + E(trans)
    E(el)   - is the total energy from the electronic structure calculation
              = E(kin-el) + E(nuc-el) + E(el-el) + E(nuc-nuc)
    E(ZPE)  - the the zero temperature vibrational energy from the frequency calculation
    E(vib)  - the the finite temperature correction to E(ZPE) due to population
              of excited vibrational states
    E(rot)  - is the rotational thermal energy
    E(trans)- is the translational thermal energy

Summary of contributions to the inner energy U:
Electronic energy                ...   -383.95517681 Eh
Zero point energy                ...      0.18923480 Eh     118.75 kcal/mol
Thermal vibrational correction   ...      0.00805908 Eh       5.06 kcal/mol
Thermal rotational correction    ...      0.00141627 Eh       0.89 kcal/mol
Thermal translational correction ...      0.00141627 Eh       0.89 kcal/mol
-----------------------------------------------------------------------
Total thermal energy                   -383.75505039 Eh


Summary of corrections to the electronic energy:
(perhaps to be used in another calculation)
Total thermal correction                  0.01089162 Eh       6.83 kcal/mol
Non-thermal (ZPE) correction              0.18923480 Eh     118.75 kcal/mol
-----------------------------------------------------------------------
Total correction                          0.20012643 Eh     125.58 kcal/mol


--------
ENTHALPY
--------

The enthalpy is H = U + kB*T
                kB is Boltzmann's constant
Total free energy                 ...   -383.75505039 Eh 
Thermal Enthalpy correction       ...      0.00094421 Eh       0.59 kcal/mol
-----------------------------------------------------------------------
Total Enthalpy                    ...   -383.75410618 Eh


Note: Only C1 symmetry has been detected, increase convergence thresholds 
      if your molecule has a higher symmetry. Symmetry factor of 1.0 is   
      used for the rotational entropy correction. 
 

Note: Rotational entropy computed according to Herzberg 
Infrared and Raman Spectra, Chapter V,1, Van Nostrand Reinhold, 1945 
Point Group:  C1, Symmetry Number:   1  
Rotational constants in cm-1:     0.085788     0.036476     0.033421 

Vibrational entropy computed according to the QRRHO of S. Grimme
Chem.Eur.J. 2012 18 9955


-------
ENTROPY
-------

The entropy contributions are T*S = T*(S(el)+S(vib)+S(rot)+S(trans))
     S(el)   - electronic entropy
     S(vib)  - vibrational entropy
     S(rot)  - rotational entropy
     S(trans)- translational entropy
The entropies will be listed as multiplied by the temperature to get
units of energy

Electronic entropy                ...      0.00065446 Eh      0.41 kcal/mol
Vibrational entropy               ...      0.01406300 Eh      8.82 kcal/mol
Rotational entropy                ...      0.01383778 Eh      8.68 kcal/mol
Translational entropy             ...      0.01918948 Eh     12.04 kcal/mol
-----------------------------------------------------------------------
Final entropy term                ...      0.04774472 Eh     29.96 kcal/mol

In case the symmetry of your molecule has not been determined correctly
or in case you have a reason to use a different symmetry number we print 
out the resulting rotational entropy values for sn=1,12 :
 --------------------------------------------------------
|  sn= 1 | S(rot)=       0.01383778 Eh      8.68 kcal/mol|
|  sn= 2 | S(rot)=       0.01318332 Eh      8.27 kcal/mol|
|  sn= 3 | S(rot)=       0.01280049 Eh      8.03 kcal/mol|
|  sn= 4 | S(rot)=       0.01252887 Eh      7.86 kcal/mol|
|  sn= 5 | S(rot)=       0.01231818 Eh      7.73 kcal/mol|
|  sn= 6 | S(rot)=       0.01214604 Eh      7.62 kcal/mol|
|  sn= 7 | S(rot)=       0.01200049 Eh      7.53 kcal/mol|
|  sn= 8 | S(rot)=       0.01187441 Eh      7.45 kcal/mol|
|  sn= 9 | S(rot)=       0.01176320 Eh      7.38 kcal/mol|
|  sn=10 | S(rot)=       0.01166372 Eh      7.32 kcal/mol|
|  sn=11 | S(rot)=       0.01157373 Eh      7.26 kcal/mol|
|  sn=12 | S(rot)=       0.01149158 Eh      7.21 kcal/mol|
 --------------------------------------------------------


-------------------
GIBBS FREE ENERGY
-------------------

The Gibbs free energy is G = H - T*S

Total enthalpy                    ...   -383.75410618 Eh 
Total entropy correction          ...     -0.04774472 Eh    -29.96 kcal/mol
-----------------------------------------------------------------------
Final Gibbs free energy         ...   -383.80185090 Eh

For completeness - the Gibbs free energy minus the electronic energy
G-E(el)                           ...      0.15332592 Eh     96.21 kcal/mol


Timings for individual modules:

Sum of individual times         ...     4857.918 sec (=  80.965 min)
GTO integral calculation        ...       16.257 sec (=   0.271 min)   0.3 %
SCF iterations                  ...      682.721 sec (=  11.379 min)  14.1 %
SCF Gradient evaluation         ...      103.095 sec (=   1.718 min)   2.1 %
Geometry relaxation             ...        2.417 sec (=   0.040 min)   0.0 %
Analytical frequency calculation...     4053.428 sec (=  67.557 min)  83.4 %
                             ****ORCA TERMINATED NORMALLY****
TOTAL RUN TIME: 0 days 1 hours 23 minutes 7 seconds 407 msec
