18
	Energy:      15.5352233
C         -2.33066       -0.31627        0.02524
C         -1.68868        1.04641        0.01543
C         -0.28535        1.14010        0.04611
C          0.34298        2.38660        0.03812
C         -2.46342        2.23653       -0.02391
C         -0.41791        3.55388       -0.00047
C         -1.81139        3.48108       -0.03129
C         -3.97114        2.22578       -0.05849
H         -2.97907       -0.42147        0.92036
H         -1.57344       -1.12843        0.05753
H         -2.93702       -0.45437       -0.89453
H          0.32381        0.24510        0.07631
H          1.42343        2.44705        0.06194
H         -4.36373        2.77020        0.82610
H         -4.41078        1.21006       -0.05055
H         -4.32212        2.73805       -0.97904
H          0.07296        4.51855       -0.00654
H         -2.38858        4.39742       -0.06111
