9
	Energy:      50.7908251
C          0.02017       -0.03067        0.01335
C         -0.68157        1.17679        0.01458
S          0.45463        2.38372        0.00268
C          1.83803        1.47053       -0.00435
C          1.43291        0.13404        0.00274
H         -0.46422       -0.99791        0.01984
H         -1.75639        1.29661        0.02186
H          2.85645        1.83439       -0.01280
H          2.12685       -0.69583        0.00037
