77
 energy: -117.266577039597 gnorm: 3.899948371268 xtb: 6.5.1 (fef0646)
Br           5.02876000000000        1.63113000000000       -1.16045000000000
C            0.61433000000000        3.70560000000000       -3.08670000000000
C           -1.09897000000000        5.10051000000000       -4.10417000000000
C            1.19346000000000       -2.26576000000000       -4.16106000000000
C            0.61312000000000        0.09700000000000       -3.98494000000000
C           -1.35716000000000        4.10816000000000       -5.04046000000000
C           -0.74791000000000       -0.24130000000000       -4.07635000000000
C            0.34380000000000        2.67405000000000       -4.02714000000000
C           -0.16401000000000       -2.57805000000000       -4.27908000000000
C            1.58370000000000        3.54938000000000       -2.07041000000000
C           -0.11529000000000        4.91940000000000       -3.13519000000000
C            1.60196000000000       -0.92961000000000       -3.97280000000000
C           -0.64400000000000        2.89136000000000       -5.04688000000000
C           -1.13002000000000       -1.57420000000000       -4.21908000000000
C            8.12609000000000        1.79112000000000        5.11717000000000
C            7.40144000000000        1.62488000000000        2.28700000000000
C            6.47388000000000        1.84523000000000        3.32699000000000
C            1.83117000000000        4.57207000000000       -1.15207000000000
C            0.14311000000000        5.93972000000000       -2.20507000000000
C            6.96855000000000        1.56164000000000        0.95884000000000
C            5.11773000000000        1.99857000000000        3.00811000000000
C            5.61337000000000        1.71681000000000        0.65383000000000
C            4.68834000000000        1.93513000000000        1.67882000000000
C           -2.20241000000000        1.83523000000000       -6.75430000000000
C           -0.91277000000000        1.94083000000000       -6.18446000000000
C            1.11538000000000        5.76540000000000       -1.22100000000000
C            4.21890000000000       -1.17054000000000       -3.82479000000000
C            4.32204000000000       -2.49450000000000       -3.35317000000000
C            6.59887000000000        3.03612000000000       -5.54807000000000
C            6.56500000000000        1.66374000000000       -4.99254000000000
C            5.48397000000000        3.74031000000000       -5.74439000000000
C            5.40881000000000        0.97300000000000       -4.78392000000000
C            5.40849000000000       -0.47506000000000       -4.26092000000000
C           -2.44938000000000        0.95854000000000       -7.81483000000000
C            5.54170000000000       -3.15787000000000       -3.32740000000000
C            0.11960000000000        1.15383000000000       -6.74199000000000
C            4.16644000000000        3.18089000000000       -5.32937000000000
C            4.09710000000000        1.66855000000000       -5.13458000000000
C            6.62919000000000       -1.20160000000000       -4.21591000000000
C            6.68828000000000       -2.51665000000000       -3.76303000000000
C           -1.41711000000000        0.18040000000000       -8.33706000000000
C           -0.13332000000000        0.28133000000000       -7.80367000000000
Cu           2.95193000000000        1.35300000000000       -3.58883000000000
H            2.15666000000000        2.64235000000000       -1.96711000000000
H            8.10926000000000        1.89474000000000        6.22144000000000
H           -1.66265000000000        6.02528000000000       -4.15172000000000
H            1.88048000000000       -3.08570000000000       -4.23262000000000
H           -1.51714000000000        0.51640000000000       -4.04682000000000
H           -2.10019000000000        4.32960000000000       -5.79404000000000
H           -0.46968000000000       -3.60774000000000       -4.41402000000000
H            8.53747000000000        0.79136000000000        4.86158000000000
H           -3.03438000000000        2.41056000000000       -6.37238000000000
H            8.45609000000000        1.50172000000000        2.49313000000000
H            7.68734000000000        1.39233000000000        0.16732000000000
H            4.39304000000000        2.16820000000000        3.79466000000000
H           -2.17883000000000       -1.82875000000000       -4.30142000000000
H            2.57997000000000        4.43627000000000       -0.38194000000000
H            3.47881000000000       -3.02676000000000       -2.95494000000000
H            8.77411000000000        2.58949000000000        4.69662000000000
H           -0.40908000000000        6.87172000000000       -2.23783000000000
H            3.63778000000000        2.05584000000000        1.44696000000000
H            7.55778000000000        3.47805000000000       -5.80077000000000
H            7.53832000000000        1.24799000000000       -4.79073000000000
H            1.30986000000000        6.55480000000000       -0.50648000000000
H            5.53782000000000        4.74466000000000       -6.15222000000000
H           -3.44545000000000        0.88194000000000       -8.23151000000000
H            1.13322000000000        1.21853000000000       -6.37628000000000
H            5.59905000000000       -4.17364000000000       -2.95720000000000
H            3.24391000000000        3.72896000000000       -5.61351000000000
H            3.65864000000000        1.17563000000000       -6.02746000000000
H            7.56867000000000       -0.78990000000000       -4.53834000000000
H            7.63626000000000       -3.03952000000000       -3.74296000000000
H           -1.61089000000000       -0.49654000000000       -9.15903000000000
H            0.67084000000000       -0.31419000000000       -8.21637000000000
N            1.07493000000000        1.45037000000000       -3.90535000000000
N            2.96343000000000       -0.49602000000000       -3.81265000000000
O            6.84038000000000        1.91615000000000        4.63296000000000
77
 energy: -119.343427073284 gnorm: 1.983984505534 xtb: 6.5.1 (fef0646)
Br           5.10992928336764        1.64108319594110       -1.08832817931174
C            0.61569472788078        3.70447978609673       -3.08594665971321
C           -1.10040777073114        5.09907079682889       -4.10664153585063
C            1.19167146227335       -2.26366914894342       -4.16096477218842
C            0.61461547649237        0.10279658612845       -3.98577037567151
C           -1.35562996014812        4.10843289473274       -5.03917090751588
C           -0.74612891890554       -0.24232509503519       -4.07658279189036
C            0.34412486391436        2.66511881541228       -4.02947566199001
C           -0.16373050743053       -2.57621099824362       -4.27897562240129
C            1.58329167508140        3.55228653309145       -2.06893370225189
C           -0.11510105625214        4.92016267080272       -3.13465204990448
C            1.60737273059411       -0.92971959946718       -3.97249681949247
C           -0.64346047038562        2.89028055666380       -5.04785016224265
C           -1.12857834828748       -1.57391854721277       -4.21881058484016
C            8.12842115432861        1.79068805838736        5.11606133541842
C            7.39516468635178        1.62542446503380        2.28308557531209
C            6.47572083468370        1.84470211526120        3.32467551909756
C            1.83049529832265        4.57069346663133       -1.15368431104217
C            0.14559215713631        5.93949022504977       -2.20240552050025
C            6.94192288625208        1.56351438264329        0.94332842531551
C            5.12019771570660        1.99780614437618        3.00268838263057
C            5.46342813241150        1.69463869744289        0.41927918192582
C            4.68677173615769        1.93351987087990        1.66205092905055
C           -2.20066285935534        1.83398752199933       -6.75472733905249
C           -0.91236193612646        1.94113483686399       -6.18364847936950
C            1.11387848484139        5.76562029830646       -1.22252613814267
C            4.21364296848237       -1.16944688768843       -3.82589430321757
C            4.32416486508520       -2.49410422522872       -3.35319148766538
C            6.60052876256924        3.02946303991201       -5.54561982055938
C            6.56513997243289        1.66873287924704       -4.99343286763760
C            5.47257022375705        3.73809146491227       -5.73850412116873
C            5.40517675205509        0.97242621259474       -4.78352236248347
C            5.40839101900336       -0.47350479426032       -4.26265565831748
C           -2.44757381597416        0.95906256891711       -7.81379322435913
C            5.54109288944961       -3.15690063868131       -3.32748429376456
C            0.11793335061571        1.15383961816293       -6.74273517301089
C            4.16304270737962        3.16239908647344       -5.31874474319838
C            4.10200756962433        1.67059308090296       -5.13826032123327
C            6.62595077420288       -1.20136175978809       -4.21542406374351
C            6.68786041405456       -2.51573687004433       -3.76318989504217
C           -1.41693389466201        0.18114546760497       -8.33619718567798
C           -0.13454017074619        0.28277275643650       -7.80267144580729
Cu           3.05135420995489        1.39688345958145       -3.40004467369699
H            2.15645067301158        2.64187179249211       -1.96756944706732
H            8.10851429118635        1.89460855558037        6.21919342280045
H           -1.66247055811911        6.02506609933206       -4.15150573001937
H            1.88130793984572       -3.08526581043594       -4.23268579308176
H           -1.51646722230392        0.51655383736335       -4.04673483256521
H           -2.09981717279986        4.32884768528557       -5.79419193645510
H           -0.46944048434140       -3.60750152875109       -4.41405370786243
H            8.53786289112839        0.79252473205588        4.86190774214377
H           -3.03380318323612        2.41044444156915       -6.37207515557925
H            8.45479824017933        1.50187085930917        2.49275492928836
H            7.68715313664337        1.39248104911850        0.16904909029618
H            4.39415865439383        2.16799516100957        3.79386808556927
H           -2.17862941190892       -1.82860147075875       -4.30130570613264
H            2.57977345653359        4.43618414540765       -0.38226093694263
H            3.47811619990226       -3.02601981474599       -2.95507501417338
H            8.77420057553338        2.58830329621178        4.69716256500109
H           -0.40893972236128        6.87119759630183       -2.23810897994354
H            3.63706586477009        2.05614806355418        1.44950656023439
H            7.55764361558753        3.47670136758046       -5.80080328006667
H            7.53818144245577        1.24780894036686       -4.79048688503699
H            1.30979497614095        6.55471149757394       -0.50662477173173
H            5.53632143324199        4.74394894317329       -6.15125612914892
H           -3.44514030643412        0.88207737640235       -8.23126492277723
H            1.13264566220230        1.21892051518415       -6.37585595414261
H            5.59884453026573       -4.17356904838978       -2.95730936526593
H            3.24703674323741        3.72594648982709       -5.61200415244907
H            3.65575086923299        1.17553677783532       -6.02360556366393
H            7.56805753115677       -0.78876512210979       -4.53870503150669
H            7.63624993860096       -3.03925099357706       -3.74312589738510
H           -1.61091969133796       -0.49642425245944       -9.15880940827454
H            0.67050979403313       -0.31383899914655       -8.21602923287365
N            1.08584942370346        1.45108368208365       -3.90256948667680
N            2.96347300633421       -0.51000652925163       -3.81903736783033
O            6.83581678806319        1.91693767628206        4.63505019852435
77
 energy: -120.052893270469 gnorm: 1.239741334428 xtb: 6.5.1 (fef0646)
Br           5.27724191062527        1.65819494305303       -1.06619602795224
C            0.61795700630516        3.70187855505334       -3.08585395335651
C           -1.10227389746045        5.09689708976399       -4.11009649495299
C            1.18981786903194       -2.25950643687407       -4.16029675833242
C            0.62121804557401        0.11488589862551       -3.98732416705709
C           -1.35258104041949        4.10757201143304       -5.03752937098212
C           -0.74123629896660       -0.24252469858910       -4.07701692520227
C            0.34933460790546        2.64704864988071       -4.03179933758772
C           -0.16319350524597       -2.57315912462078       -4.27898601814458
C            1.58208090380113        3.55715744417680       -2.06711000386641
C           -0.11477990428750        4.92066353591589       -3.13416737977179
C            1.61819390580255       -0.92800687409608       -3.97157492280595
C           -0.64158596747778        2.88720344297680       -5.04905914795960
C           -1.12588749855393       -1.57290408810445       -4.21830083287437
C            8.13094045656795        1.79006361581125        5.11378858550090
C            7.38222379426127        1.62557439286872        2.26839939040592
C            6.47608345494213        1.84391103850857        3.31917768616762
C            1.82949132403696        4.56919215803951       -1.15592827635774
C            0.14930224466397        5.93899331545014       -2.19855640286205
C            6.90501502125687        1.56527768232255        0.92966250246490
C            5.12270620123585        1.99598939713641        2.98898661493397
C            5.30863925333631        1.67435060759028        0.24551853226770
C            4.67992009101700        1.93090000531710        1.64168464439064
C           -2.19753887289933        1.83216925649939       -6.75507895389160
C           -0.91154761576087        1.94170561260605       -6.18227973087872
C            1.11196167485857        5.76603302324199       -1.22434833223396
C            4.20221231179532       -1.16388368474336       -3.82778383045149
C            4.32722230887412       -2.49294627033937       -3.35305054220502
C            6.60029674750719        3.01855278716670       -5.54101970097938
C            6.56363452981878        1.67721087084471       -4.99362600851883
C            5.45304667960527        3.73107240948750       -5.72433270712155
C            5.39226242093595        0.97283863464190       -4.77679358610089
C            5.40671913570267       -0.46990823506998       -4.26616603518397
C           -2.44457022139333        0.95997107073660       -7.81221159623392
C            5.53971010550633       -3.15520125061803       -3.32745184138301
C            0.11551085694391        1.15421315469644       -6.74371181403057
C            4.15696154815371        3.12745654798680       -5.29270204262484
C            4.09735761493160        1.66938738313270       -5.12030229653362
C            6.62028266210087       -1.20033706734455       -4.21479022366692
C            6.68733958315961       -2.51364491393049       -3.76359269632459
C           -1.41660012863190        0.18230275201121       -8.33499328926570
C           -0.13646117970278        0.28522117169622       -7.80112995487180
Cu           3.10850143371734        1.43401007307354       -3.27102815515451
H            2.15626348654358        2.64039789953128       -1.96894639758137
H            8.10693161644449        1.89431072583696        6.21477201434875
H           -1.66210578830958        6.02457647519184       -4.15118221680996
H            1.88257551869717       -3.08371612533502       -4.23282953957571
H           -1.51456628204224        0.51662800991030       -4.04663285183606
H           -2.09858474091377        4.32697448034293       -5.79438911272613
H           -0.46879793257720       -3.60662543662099       -4.41422326230982
H            8.53862087178778        0.79448579405903        4.86241185455335
H           -3.03218613847128        2.40997901390966       -6.37163591406910
H            8.44958006480655        1.50236191918011        2.48872868150294
H            7.68316487306113        1.39315637975392        0.17117542640271
H            4.39665523280784        2.16736755892292        3.78896491042425
H           -2.17779287079920       -1.82805245916969       -4.30105553976504
H            2.57915779052314        4.43616273725248       -0.38286065909782
H            3.47709293168907       -3.02422053742749       -2.95557338241994
H            8.77444297611216        2.58616697745279        4.69805635573123
H           -0.40849055951866        6.86995141267684       -2.23867739597579
H            3.63051978775386        2.05744666942101        1.45378774466826
H            7.55616523619947        3.47353896503207       -5.80079342936785
H            7.53691058094950        1.24754033738682       -4.79029688122661
H            1.30965025321620        6.55440199052666       -0.50694408245193
H            5.53196208559846        4.74018134159242       -6.14774321222505
H           -3.44402163104572        0.88245661737934       -8.23065059710804
H            1.13106568772332        1.21974662669947       -6.37487043569323
H            5.59840063775991       -4.17318606728619       -2.95753059893249
H            3.25437601043300        3.71744221431340       -5.60754160985346
H            3.64879663229583        1.17614243426160       -6.00997286802384
H            7.56602140813351       -0.78654477082005       -4.53920633204823
H            7.63606359874801       -3.03839542259840       -3.74348650075217
H           -1.61087314210870       -0.49603684688295       -9.15826724101409
H            0.66961352366554       -0.31283442524066       -8.21515910966157
N            1.11784547800056        1.45309476147688       -3.88816118323329
N            2.96448803780927       -0.50713281998587       -3.82620394851626
O            6.82811519185186        1.91832768184145        4.63955871623241
77
 energy: -120.709092105826 gnorm: 1.004991690687 xtb: 6.5.1 (fef0646)
Br           5.59353421583071        1.69130380167190       -1.30769699674306
C            0.62003563663716        3.69889973575924       -3.08607885674744
C           -1.10401845085640        5.09458588334058       -4.11343757013647
C            1.18844346919120       -2.25457624583723       -4.15957476186177
C            0.62868745329239        0.12755704566113       -3.98865472907063
C           -1.34904583306831        4.10617115817749       -5.03578346905497
C           -0.73521962435991       -0.24218518833165       -4.07743473431095
C            0.35470852027443        2.62860706162706       -4.03383930965494
C           -0.16229606957378       -2.56969721401364       -4.27893913293454
C            1.58081453624645        3.56213020411911       -2.06526072162271
C           -0.11432688476628        4.92089900062609       -3.13368119821966
C            1.63058304722817       -0.92523518971227       -3.97022057454247
C           -0.63902429556384        2.88342540619105       -5.05005650046131
C           -1.12281678392651       -1.57133609214455       -4.21767444471102
C            8.13326559514135        1.78941370277789        5.11098465091384
C            7.37136899249169        1.62543589555975        2.25470552390931
C            6.47581271882196        1.84293173303139        3.31363314720763
C            1.82856156005984        4.56785920147953       -1.15804854972140
C            0.15307649428070        5.93838203666412       -2.19471158770273
C            6.86203561590371        1.56726738256018        0.93137239718231
C            5.12340443960693        1.99470636564016        2.98005981376796
C            5.11491957261783        1.64000783561144        0.23191916162240
C            4.64957893027834        1.93226773660515        1.64460782010076
C           -2.19419551670239        1.83037430820265       -6.75512588453986
C           -0.91069048007945        1.94227977941307       -6.18070525357164
C            1.11025595486489        5.76647067136209       -1.22594889188034
C            4.19051982464962       -1.15798614329906       -3.82981419326047
C            4.33001885898023       -2.49123237726762       -3.35308255187969
C            6.59841401041261        3.00684857387763       -5.53576272134963
C            6.55898443760665        1.68497459494049       -4.99282437003528
C            5.43072686968811        3.72153237762393       -5.70680592366637
C            5.36904933232751        0.97593821464261       -4.76036046888311
C            5.40368503320509       -0.46577764603264       -4.26978869171584
C           -2.44148628297298        0.96099651073938       -7.81041344932697
C            5.53819540241690       -3.15321956601951       -3.32751527160228
C            0.11289071457357        1.15474901093955       -6.74450975234973
C            4.14730185310406        3.08699441539677       -5.25794277520184
C            4.08368105885142        1.66479050129784       -5.08322678448666
C            6.61393384016534       -1.19888092210133       -4.21442269062574
C            6.68660500697424       -2.51111769898259       -3.76422783387873
C           -1.41635050989094        0.18354400985510       -8.33366776906398
C           -0.13856812598211        0.28784951336465       -7.79945345544725
Cu           3.13160611616406        1.46278458681669       -3.14748540713403
H            2.15596353414361        2.63898906936129       -1.97026265442956
H            8.10529043248037        1.89393459916345        6.20957162739400
H           -1.66168117938311        6.02393134868443       -4.15076377232900
H            1.88387401123544       -3.08161908410494       -4.23295104465071
H           -1.51214027680336        0.51666681397389       -4.04639552216925
H           -2.09693683304032        4.32457145956644       -5.79439638408585
H           -0.46792699949789       -3.60531776095924       -4.41431105280794
H            8.53969012877546        0.79658046410807        4.86272312433134
H           -3.03021299587589        2.40938775789384       -6.37099537966838
H            8.44431038742019        1.50300923066555        2.48406599702062
H            7.67198331056816        1.39489752354301        0.17429310007288
H            4.39966909055876        2.16688677016713        3.78481958499869
H           -2.17658813020754       -1.82715413051965       -4.30061379553984
H            2.57847557852464        4.43612578624850       -0.38361073032764
H            3.47595524085852       -3.02196250839942       -2.95620143437933
H            8.77495907424595        2.58375344764188        4.69879832300650
H           -0.40788254746746        6.86842433460713       -2.23927064438686
H            3.61718150277753        2.05984828371671        1.46022087452913
H            7.55369600735458        3.46950495366468       -5.80087474426322
H            7.53425158618997        1.24706021136007       -4.79033031442890
H            1.30957141205169        6.55401636994252       -0.50728534067835
H            5.52582722361784        4.73444753368947       -6.14288852997235
H           -3.44266840750210        0.88298886233623       -8.22968518973935
H            1.12907462743545        1.22074165870861       -6.37373984139281
H            5.59778296911907       -4.17257603304111       -2.95790134140694
H            3.26273240101357        3.70636432122140       -5.60155634808799
H            3.64060674189213        1.17716814379883       -5.99162506400887
H            7.56317472256511       -0.78390465581634       -4.53982761714624
H            7.63566690148533       -3.03723899110411       -3.74405898132784
H           -1.61093656577988       -0.49549175927670       -9.15745591247546
H            0.66836602961410       -0.31154757461596       -8.21401826387290
N            1.14584632679587        1.45621209944702       -3.86962796049733
N            2.96829769004203       -0.49728487481639       -3.82771939234171
O            6.82005675064795        1.91982235731007        4.64441938775263
77
 energy: -121.167783518835 gnorm: 0.481938208310 xtb: 6.5.1 (fef0646)
Br           5.95512968999317        1.72862086407365       -1.41968624325327
C            0.62106508573500        3.69600847595901       -3.08769651756486
C           -1.10414183909315        5.09233896652415       -4.11592783988308
C            1.19068390089349       -2.24812860626320       -4.15934398009605
C            0.63821393557847        0.13843135581306       -3.98825564284557
C           -1.34427940837747        4.10293303142151       -5.03542242820125
C           -0.72665731088342       -0.23957569334384       -4.07875444972798
C            0.36028547965402        2.61605186386540       -4.03308590146352
C           -0.15925313598823       -2.56574723286296       -4.27974009064837
C            1.57959390067986        3.56525872381447       -2.06457368435766
C           -0.11351006063910        4.91971433677390       -3.13419317678241
C            1.64477270836613       -0.91850863467735       -3.96711885036113
C           -0.63378931656259        2.87805217655930       -5.05002061364174
C           -1.11868652577123       -1.56774189944930       -4.21806217535331
C            8.13099183294229        1.78873933240124        5.10837027075908
C            7.35372507761470        1.62451215157682        2.23876952019878
C            6.46951237788968        1.84195894417533        3.30818316574421
C            1.82783953849536        4.56759837565780       -1.15894076242757
C            0.15513522426759        5.93725333737549       -2.19330006418876
C            6.82216145908839        1.56264262899031        0.92742038631811
C            5.12170984147029        1.99136148788136        2.96030926325321
C            4.99322374501155        1.61501812151697        0.11785294100545
C            4.62329384509547        1.92944823453132        1.61195371845170
C           -2.19045593260454        1.82952290294052       -6.75524379745334
C           -0.90899715549499        1.94249217700961       -6.17991867486407
C            1.10940095493452        5.76669898964113       -1.22635411898165
C            4.18221107662324       -1.15122335011450       -3.82942454837898
C            4.33049586845215       -2.48762040295082       -3.35340718360180
C            6.59130018981575        2.99688459088468       -5.52835543098298
C            6.54784522158243        1.68764429487172       -4.98585705250894
C            5.41055714414894        3.70838066718088       -5.68258702307039
C            5.34082028586150        0.98390294782924       -4.72167052005333
C            5.39736522226338       -0.46156404982201       -4.27105886240521
C           -2.43808289501122        0.96216456393037       -7.80996808839110
C            5.53670040357204       -3.15061836879191       -3.32746948149047
C            0.11183370685955        1.15581019613905       -6.74512437012549
C            4.13952757010629        3.05837445467223       -5.21459900641429
C            4.06962824904845        1.65858811298804       -5.02282530085196
C            6.60765758996358       -1.19607431845759       -4.21445996623602
C            6.68536670351599       -2.50767357800101       -3.76469069366727
C           -1.41508068584189        0.18471962626439       -8.33365310196960
C           -0.13912833500685        0.29021584649370       -7.79882568361156
Cu           3.09719803907738        1.46184457111005       -3.12729753203814
H            2.15528850008969        2.63798530623030       -1.97151922427633
H            8.10137708073218        1.89316822272012        6.20483628651505
H           -1.66093587822389        6.02269487584594       -4.15121659451284
H            1.88535918304093       -3.07786744181252       -4.23327902200598
H           -1.50778385515704        0.51666557985906       -4.04684234578612
H           -2.09336472940671        4.32068499232974       -5.79489328262429
H           -0.46577721912004       -3.60254386016005       -4.41514718899845
H            8.53917615293361        0.79813561409540        4.86354327559075
H           -3.02670734800216        2.40860010937994       -6.37126296954918
H            8.43240433502944        1.50439970818320        2.47585564963691
H            7.65446346922060        1.39740099565030        0.18287381689568
H            4.40286442146625        2.16535545162977        3.77529274019597
H           -2.17363888751808       -1.82497168384167       -4.30100749614774
H            2.57703323324017        4.43597572020837       -0.38455396875025
H            3.47494892469781       -3.01855960802433       -2.95703751293475
H            8.77398731507377        2.58109928980545        4.70014541721782
H           -0.40726718487679        6.86630230931352       -2.24050175900136
H            3.58990316541098        2.06439134927258        1.47164872388297
H            7.54778212970910        3.46335157768348       -5.79987918424455
H            7.52752150579332        1.24606724387004       -4.79002624717866
H            1.30904509422910        6.55342701659941       -0.50767652534326
H            5.51504501502347        4.72236448405946       -6.13288625537558
H           -3.43950591898554        0.88404007496579       -8.22943561995152
H            1.12721013862003        1.22211517327005       -6.37277137093504
H            5.59676807555556       -4.17100786082810       -2.95820323076602
H            3.27213890863582        3.68925272097569       -5.59098441377823
H            3.63109111755452        1.17988298468749       -5.95778677576276
H            7.55850584988843       -0.78024670339768       -4.53943069326039