77
 energy: -121.762526914289 gnorm: 0.000210804628 xtb: 6.5.1 (fef0646)
Br           5.35965864053875        3.90721570426239       -1.31623896248903
C            0.77817967588139        4.45485908130338       -3.23547327275389
C           -1.49313703736737        4.89810546474842       -4.00704374309706
C            2.04728439202383       -1.44180599452288       -3.23151835958803
C            1.35533002797843        0.84994216010984       -2.95726549138153
C           -1.56632992247129        3.60800382589267       -4.46474548173812
C            0.14218750119068        0.38225559112617       -2.45572879658668
C            0.62117390466527        3.05442175707651       -3.55140157947103
C            0.80024341687022       -1.88013521327155       -2.82531362110607
C            1.99240193076386        4.95977941851519       -2.75179964713074
C           -0.29765826362771        5.36074009251245       -3.42555339886380
C            2.39915590600950       -0.09024084730748       -3.20320781818448
C           -0.52941037090904        2.68657974708328       -4.28719217648749
C           -0.13222271815195       -0.96881870145883       -2.36412639288459
C            4.94147753167841       -2.43566680301580        1.25990746957566
C            5.67847780263412        0.10225904894341        0.26738162640112
C            4.35461711463727       -0.31139844976603        0.37116489984854
C            2.14656462801573        6.27657524836333       -2.40496871556122
C           -0.12156938995613        6.70806205455393       -3.04829576937643
C            5.97381550721725        1.35019161393102       -0.25258497060419
C            3.33244512874908        0.53610410209641       -0.05983066599494
C            4.94701019239548        2.17870119462854       -0.65328090872416
C            3.62296164421220        1.78202362895514       -0.57101436522576
C           -1.82204165501981        0.65630721843556       -4.95587851131318
C           -0.63509315623428        1.38656952047862       -4.95969531019355
C            1.06606119302856        7.15606624808424       -2.53667194115014
C            4.81917129793600       -0.22540142085361       -3.28158312281570
C            4.95699016558594       -1.41493700578358       -2.52218060659247
C            7.14961345821344        3.89709520127467       -4.40666116495444
C            7.10584839409793        2.59751830455467       -3.93408265982666
C            6.15700927762914        4.36923203302471       -5.25286287497014
C            6.08551529958318        1.71859208852083       -4.29215019983329
C            6.04526633463699        0.37058116258949       -3.73206720227303
C           -1.91648857035770       -0.54869738112967       -5.62517356695445
C            6.15955581658124       -2.05415742802369       -2.36380160127809
C            0.44756746003926        0.87728511430202       -5.67919563469065
C            5.13851395120330        3.52540738346596       -5.64615030497131
C            5.04002065011830        2.21336374501931       -5.12836527465220
C            7.24867379683389       -0.30284971229844       -3.54445975454682
C            7.32438878141569       -1.52346996682688       -2.90678805660095
C           -0.82853995297590       -1.04958759676121       -6.31807819272788
C            0.35340898461803       -0.32699882681844       -6.34450164218002
Cu           3.45645018261002        2.35972594298935       -3.81396438142096
H            2.83458133918824        4.27620718954507       -2.69107317412243
H            4.40251676875453       -3.32861978098173        1.57448591241511
H           -2.32249790224651        5.58070111142740       -4.13513544066765
H            2.75822124024697       -2.16072708342806       -3.61469453574975
H           -0.60340401387474        1.10596803139633       -2.15297214936697
H           -2.44446895951098        3.28694951356848       -5.01209842244590
H            0.56682084168476       -2.93685696858941       -2.85554745732533
H            5.59288385979869       -2.68150256290684        0.41651924960430
H           -2.67110704009369        1.02589806286616       -4.39711265916315
H            6.49259831727950       -0.53735764443370        0.56825901116884
H            7.00101970007961        1.66889446560218       -0.34356774215903
H            2.31269011703799        0.19084610709314       -0.00497061614424
H           -1.08530001825611       -1.30306403136820       -1.97541075017330
H            3.09833527945410        6.63215140245895       -2.03657116148419
H            4.07979703276811       -1.82149449026922       -2.04331018207806
H            5.55051156975234       -2.06880743932011        2.09462628170768
H           -0.95010825450650        7.39179292263257       -3.18723546188150
H            2.82778319828369        2.42468503986228       -0.91620339021747
H            7.95905647062016        4.54808500805011       -4.10845767102749
H            7.88218334952384        2.25719164489309       -3.26278565805146
H            1.18178329553760        8.19434802957588       -2.25265371416081
H            6.19768468093423        5.38330087081249       -5.62443843121278
H           -2.84329449456380       -1.10755685452640       -5.59832289220322
H            1.37158064354162        1.43907436669873       -5.71048933559086
H            6.20125470399522       -2.98962156356398       -1.81522187455744
H            4.39605375143548        3.86610489309047       -6.35548245546259
H            4.46542199693176        1.48616733280333       -5.70229855977833
H            8.15315198203784        0.13793962818642       -3.94506040071015
H            8.26801100296888       -2.04395987798035       -2.81373853091363
H           -0.89906536133770       -1.99853873794758       -6.83226525741116
H            1.20791518582425       -0.70947966026287       -6.88616238745205
N            1.58667885843457        2.20560784977459       -3.13433438042827
N            3.65285724506984        0.39332207546098       -3.51226991128182
O            3.95529465779862       -1.50507719887179        0.89208629334088
