77
 energy: -121.738887861248 gnorm: 0.372546824925 xtb: 6.5.1 (fef0646)
Br           5.04336595000000        0.77066338000000       -5.46181631000000
C           -0.35622326000000        3.37009478000000       -5.19694710000000
C           -0.36616629000000        5.73005629000000       -4.52173615000000
C            0.39408568000000       -1.43796635000000       -2.69384074000000
C            0.48656905000000        0.89598584000000       -3.50575948000000
C            0.70009571000000        5.48432064000000       -3.69196010000000
C           -0.72145963000000        1.15153825000000       -2.79663682000000
C            0.72760999000000        3.12661743000000       -4.28429127000000
C           -0.74250704000000       -1.13394868000000       -1.97608602000000
C           -0.87735999000000        2.33696771000000       -6.02013969000000
C           -0.91011006000000        4.68530703000000       -5.31146669000000
C            1.01380980000000       -0.45783693000000       -3.51697707000000
C            1.28234065000000        4.19193983000000       -3.57012057000000
C           -1.30442500000000        0.16443396000000       -2.02999783000000
C            1.52065027000000        3.32209778000000      -11.90493488000000
C            1.81312263000000        1.86555409000000       -9.49531746000000
C            1.87121284000000        3.26020288000000       -9.54452324000000
C           -1.90459311000000        2.58803392000000       -6.90045452000000
C           -1.97606480000000        4.90830898000000       -6.22302580000000
C            2.00748682000000        1.21353459000000       -8.26667213000000
C            2.11951041000000        3.98806500000000       -8.37460709000000
C            2.25247812000000        1.92222774000000       -7.08881426000000
C            2.30952144000000        3.32096934000000       -7.16649675000000
C            2.44890332000000        4.58110762000000       -1.38381147000000
C            2.46407938000000        4.04405355000000       -2.68106890000000
C           -2.46620917000000        3.88364458000000       -6.99932861000000
C            2.77729225000000       -1.85399306000000       -4.37800550000000
C            2.89251542000000       -2.55516338000000       -5.58838558000000
C            3.27278328000000       -1.64895403000000        0.48212230000000
C            3.28789163000000       -2.30537224000000       -0.74814171000000
C            3.45180035000000       -0.26648980000000        0.53483808000000
C            3.48828864000000       -1.59508455000000       -1.94204259000000
C            3.48981094000000       -2.31835604000000       -3.24050045000000
C            3.59133267000000        4.54137039000000       -0.58218056000000
C            3.64518070000000       -3.71942377000000       -5.68435526000000
C            3.64821839000000        3.45323539000000       -3.15035605000000
C            3.65947914000000        0.44981840000000       -0.64666206000000
C            3.68592858000000       -0.20576440000000       -1.87581420000000
C            4.24371386000000       -3.49548340000000       -3.36291480000000
C            4.32135487000000       -4.20042133000000       -4.56142712000000
C            4.76786661000000        3.96638274000000       -1.06715810000000
C            4.78880739000000        3.41623616000000       -2.35264325000000
Cu           2.54090476000000        0.92800647000000       -5.44727564000000
H           -0.41975406000000        1.35632873000000       -5.97190952000000
H            0.60402089000000        2.71270371000000      -11.90474129000000
H           -0.78638065000000        6.72997093000000       -4.60185194000000
H            0.80958629000000       -2.43924761000000       -2.67367292000000
H           -1.13942003000000        2.15203786000000       -2.81839728000000
H            1.13965285000000        6.29588318000000       -3.11829925000000
H           -1.21850276000000       -1.90261817000000       -1.37191641000000
H            1.43820953000000        4.08358812000000      -12.68567181000000
H            1.53219628000000        5.02398872000000       -1.00214970000000
H            1.62362742000000        1.27830946000000      -10.38832951000000
H            1.96905780000000        0.12599446000000       -8.24844265000000
H            2.15887642000000        5.07240677000000       -8.43768597000000
H           -2.19770098000000        0.38911062000000       -1.45203793000000
H           -2.27560568000000        1.78887689000000       -7.53646278000000
H            2.37073231000000       -2.14972210000000       -6.44999456000000
H            2.37181902000000        2.66385627000000      -12.13607216000000
H           -2.38835359000000        5.91190100000000       -6.30461597000000
H            2.49399686000000        3.90755987000000       -6.26988506000000
H            3.10535216000000       -2.21616077000000        1.39528012000000
H            3.11477613000000       -3.37807417000000       -0.79232758000000
H           -3.27582383000000        4.06995392000000       -7.70086575000000
H            3.42582178000000        0.25243288000000        1.49036503000000
H            3.55980039000000        4.95653152000000        0.42277047000000
H            3.68821192000000        3.02066636000000       -4.14295673000000
H            3.71489572000000       -4.24196958000000       -6.63509417000000
H            3.79758883000000        1.52537858000000       -0.61722743000000
H            3.85765171000000        0.35309103000000       -2.79041791000000
H            4.80859566000000       -3.83694029000000       -2.49915194000000
H            4.92639875000000       -5.10139275000000       -4.62453890000000
H            5.65750599000000        3.93318963000000       -0.44281149000000
H            5.68363285000000        2.94168258000000       -2.74514461000000
N            1.24760437000000        1.82815409000000       -4.12297821000000
N            2.00865245000000       -0.67789113000000       -4.39879465000000
O            1.70080566000000        4.01455975000000      -10.68996239000000
77
 energy: -121.773703709179 gnorm: 0.067228242178 xtb: 6.5.1 (fef0646)
Br           5.02235854392846        0.77056891340734       -5.46618114446380
C           -0.35276652524877        3.36972054711276       -5.19657423296520
C           -0.36047434933193        5.71900334343339       -4.52305059913640
C            0.39690562700340       -1.42893575853560       -2.69193054613651
C            0.48802013873868        0.89066675787144       -3.50914434979894
C            0.70264300819414        5.47417135761073       -3.69582768642928
C           -0.70894800940188        1.14600350539705       -2.79776784439345
C            0.73007197123778        3.12209464194050       -4.28491022184694
C           -0.73928048493177       -1.12627926037042       -1.97959038977637
C           -0.87499303750776        2.34546334586586       -6.02031886316613
C           -0.90453270675466        4.67865730408366       -5.31118929957225
C            1.01551908392071       -0.45591495292923       -3.50467212136463
C            1.28212334294803        4.18766582529544       -3.57080234195130
C           -1.29399362442126        0.16212664224845       -2.03367901260608
C            1.52038406970737        3.32046010971639      -11.90511431816621
C            1.81327647384877        1.87076069071483       -9.49452271397477
C            1.87079058229513        3.25858891668467       -9.54606934767092
C           -1.89901763414769        2.59452376182880       -6.89666124491674
C           -1.96838671992841        4.90061181023087       -6.21900624156365
C            2.00810011003122        1.22283825849095       -8.27796336481825
C            2.11613770579685        3.98609750688178       -8.38092223583091
C            2.25813552600484        1.93750331831543       -7.11726573906044
C            2.30642395929991        3.32637506362135       -7.18174269220946
C            2.45249167374810        4.57892170584155       -1.39076038417948
C            2.46363278443458        4.04527584340299       -2.68327063962984
C           -2.45822779341749        3.88181886292929       -6.99297558939573
C            2.77783151574317       -1.85773756314870       -4.37058053621696
C            2.89501928117254       -2.55570254335875       -5.57990325024017
C            3.27174581535274       -1.64609768997350        0.47156189682864
C            3.28604462548021       -2.30036484309660       -0.75184484155408
C            3.45150156809014       -0.27089546340851        0.52507860659066
C            3.48280872611068       -1.59562445597302       -1.94299565969722
C            3.48914325112510       -2.31813996965348       -3.23826026027394
C            3.58835042067260        4.53667428957526       -0.59211603146848
C            3.64559510797276       -3.71267595316423       -5.67714695671547
C            3.64342591349172        3.45548435037123       -3.14497069491017
C            3.65732912783867        0.44053063726797       -0.65023878621441
C            3.67964457649692       -0.21294026797109       -1.87295464951137
C            4.24081730597195       -3.48857834109296       -3.36466370458005
C            4.31769421254624       -4.18982619064078       -4.55894784546528
C            4.75906927829970        3.96394485460289       -1.07250721626279
C            4.77921133667402        3.41686768270477       -2.35046360515538
Cu           2.54143310575372        0.94410310036816       -5.37177477016522
H           -0.42619585196170        1.36201980131587       -5.96923719179663
H            0.60383245333468        2.71609536925452      -11.90194341126662
H           -0.78235143757413        6.71664364920420       -4.59987038467852
H            0.80621028480797       -2.43225416497520       -2.67588938748920
H           -1.13200194923370        2.14420088174217       -2.82102855266044
H            1.13738436845323        6.28610066836793       -3.12193143417103
H           -1.21598463390503       -1.89321178888243       -1.37773522290311
H            1.43887415900586        4.08399869977976      -12.68075172683145
H            1.53940478340582        5.02038377568458       -1.00580380810655
H            1.62465032279870        1.28131538732904      -10.38225372097217
H            1.96845966524695        0.13761326544332       -8.25294653627108
H            2.15758317823534        5.06592870609656       -8.43980764472195
H           -2.18843181296973        0.38513319925326       -1.46014507178642
H           -2.27388847533288        1.79777457662186       -7.52966283216900
H            2.37360074857037       -2.15573069768960       -6.44251147857880
H            2.37233780253788        2.66710907951425      -12.13340981312684
H           -2.38169388485629        5.90148378139285       -6.30154514286586
H            2.49360300415099        3.90592676533165       -6.28340585976333
H            3.10774628017173       -2.21095559749755        1.38427648946543
H            3.11706626222378       -3.37113197241732       -0.79160273488212
H           -3.26716732292319        4.06647236889739       -7.69267517175861
H            3.42687339373415        0.24644132766330        1.47892317811397
H            3.55859791518461        4.95220695369270        0.41078341674468
H            3.68283774154329        3.02901136775248       -4.13719752940513
H            3.71410433774349       -4.23632995225274       -6.62486186883553
H            3.79698933439258        1.51412894904065       -0.61852716929587
H            3.85679609509016        0.34837983508262       -2.78043740824358
H            4.80376940947505       -3.83419370224973       -2.50457501274947
H            4.91869745433837       -5.09086369014898       -4.62287852085166
H            5.64750674836897        3.93385035266542       -0.45005590231599
H            5.67484771050452        2.94768942266872       -2.74025277142606
N            1.24166176781204        1.82675602207637       -4.12245755866841
N            2.00177309732576       -0.69777014717054       -4.38421302495588
O            1.69986981546115        4.00862497291368      -10.69345401074144
77
 energy: -121.776666734075 gnorm: 0.012607110113 xtb: 6.5.1 (fef0646)
Br           5.02151571932028        0.76568621622060       -5.47784471209073
C           -0.34718993455019        3.36646842526334       -5.19664104349475
C           -0.35342147849982        5.70853679937940       -4.52392097707462
C            0.40186086800809       -1.42191393920040       -2.69002288435178
C            0.49235102162083        0.88786233095620       -3.50939498980212
C            0.70740684411934        5.46350674100914       -3.69879561792037
C           -0.69663246409749        1.14394067858696       -2.79851953980297
C            0.73353194947467        3.11606907098909       -4.28664801971021
C           -0.73521482800291       -1.12036779928037       -1.98023167839457
C           -0.87068847530213        2.34762679262497       -6.01907380603227
C           -0.89605793678998        4.67155549773747       -5.31116066186591
C            1.02036315668584       -0.45173041824292       -3.49630930924293
C            1.28323454510060        4.18090304276372       -3.57343140048186
C           -1.28489352891456        0.16212971475394       -2.03605488829172
C            1.52030570962976        3.31877903520623      -11.90530111999993
C            1.81453266219631        1.87583635041420       -9.48952318027759
C            1.86934961629082        3.25980155147718       -9.54765350206903
C           -1.89265930341060        2.59693787154212       -6.89349308315712
C           -1.95834303607527        4.89477533156190       -6.21472077757333
C            2.00421833590838        1.23248435309175       -8.27253841558801
C            2.11330115585707        3.98769521513122       -8.38599141052973
C            2.23556443041319        1.95054883384643       -7.11201523216318
C            2.29986882950030        3.33434151205896       -7.18504945823691
C            2.45034943155566        4.57635187206592       -1.39754056309652
C            2.46053227745162        4.04259292624617       -2.68630057879067
C           -2.44933866652892        3.88018011009862       -6.98800813505980
C            2.77729101679322       -1.85613701495140       -4.36321246961047
C            2.89478330490525       -2.55265848660956       -5.57163737636555
C            3.26835982740306       -1.64609811969093        0.46311979918866
C            3.28098722359164       -2.29973028596338       -0.75585214300431
C            3.44887280043330       -0.27449993329078        0.51698901778476
C            3.47544757255561       -1.59724013571670       -1.94446990573522
C            3.48666742556967       -2.31787334599351       -3.23479712269234
C            3.58240709409960        4.53325978533087       -0.60073891628215
C            3.64550494147746       -3.70482352478937       -5.66956356017274
C            3.63784668819362        3.45592303677211       -3.14489907860485
C            3.65327939274904        0.43416368777731       -0.65523575754103
C            3.67225115863166       -0.21881663955845       -1.87384267125597
C            4.23918710708146       -3.48251489048916       -3.36176112256286
C            4.31611120460273       -4.18033983478208       -4.55393676542734
C            4.75029066416867        3.96057812291297       -1.07761644451401
C            4.77069629924146        3.41565327604644       -2.35187586891841
Cu           2.54654086172969        0.94665771781501       -5.35272647904875
H           -0.43099784239838        1.36189106312245       -5.96465666173456
H            0.60307323066466        2.71774210632322      -11.90034794185099
H           -0.77732474442273        6.70316443821989       -4.59746805661553
H            0.80584975999463       -2.42617277053168       -2.67798218784623
H           -1.12241797091762        2.13955450716090       -2.82549629771410
H            1.13860873353902        6.27440386327920       -3.12410213575316
H           -1.21470603446552       -1.88579122649837       -1.38248670273376
H            1.43982140542058        4.08444437219766      -12.67736820218917
H            1.54096169669883        5.01900576652449       -1.01103964474999
H            1.62747088785932        1.28336679492377      -10.37429677838168
H            1.96850155443916        0.14948294526844       -8.25002726318995
H            2.15592601374306        5.06490230282930       -8.44607191998721
H           -2.18086585019278        0.38428956821427       -1.46874102042804
H           -2.27182713147310        1.80311399260949       -7.52363127769547
H            2.37250684174412       -2.15886714715464       -6.43416127302325
H            2.37324542029003        2.66822693606173      -12.13169227902110
H           -2.37183889783599        5.89334312825496       -6.29541382327590
H            2.49382636074451        3.91431272526308       -6.29250609497161
H            3.10901548876418       -2.20896398859310        1.37507517851288
H            3.11780917453809       -3.36940710112413       -0.79199802331212
H           -3.25874191798579        4.06382116131263       -7.68421063645962
H            3.42815661977959        0.24116591574788        1.46914658803661
H            3.55374305115852        4.94944885438594        0.39957696095501
H            3.67578275261672        3.03755001445901       -4.13848759239580
H            3.71315221705263       -4.22930972537894       -6.61450218694138
H            3.79713421332935        1.50515969985370       -0.62211877014570
H            3.85482394189612        0.34463143800984       -2.77589839621057
H            4.80042951648293       -3.83126817320862       -2.50430520521274
H            4.91287093748501       -5.08135189575567       -4.61835008641181
H            5.63724851853480        3.93328253959182       -0.45667155939543
H            5.66707314945991        2.95118698193553       -2.73866918465793
N            1.23767850636784        1.82484814631681       -4.12630925803757
N            2.00497043043268       -0.70266109074344       -4.37347571088896
O            1.69909013246753        4.00600948600139      -10.69679699641200
77
 energy: -121.777130236507 gnorm: 0.018488486674 xtb: 6.5.1 (fef0646)
Br           5.00206187600657        0.75931181038763       -5.49676122175262
C           -0.34311188110054        3.36289408013689       -5.19794722381599
C           -0.34805692370809        5.70208071654099       -4.52433996135321
C            0.40565669470764       -1.41942319110699       -2.68438219550858
C            0.49382732443516        0.88537269294308       -3.50596112650680
C            0.71158492109653        5.45633932051963       -3.70008692325176
C           -0.69075693093545        1.14352323525697       -2.79697774255046
C            0.73415366677349        3.11133737577978       -4.28772073066288
C           -0.73297526648150       -1.11774049584532       -1.97688769636239
C           -0.86760377177665        2.34516013780226       -6.01760078818542
C           -0.88913881855342        4.66666067046450       -5.31177402543233
C            1.02321826597158       -0.45033455691077       -3.48735939186975
C            1.28385144347330        4.17515574678436       -3.57595328076394
C           -1.28044558239512        0.16283133026557       -2.03454521062722
C            1.51851611034358        3.31754487959136      -11.90566159457763
C            1.81429794190644        1.88155058802275       -9.48377570649442
C            1.86748237621615        3.26418716123301       -9.54889212014302
C           -1.88872751652249        2.59563127551116       -6.89133929904794
C           -1.95082673090193        4.89131307463590       -6.21197922228490
C            2.01341703491853        1.24403530334735       -8.26560364624863
C            2.11038662049174        3.99520556508842       -8.39024757386279
C            2.27346741977519        1.96563055188097       -7.11238304036324
C            2.30775032143614        3.34848886093162       -7.18737683564234
C            2.44585875868130        4.57353425337015       -1.40264416783573
C            2.45717044135919        4.03818436649962       -2.68927185967016
C           -2.44327753842431        3.87834263637278       -6.98497446764155
C            2.77583555308136       -1.85630851042320       -4.35720582287185
C            2.89318256121700       -2.55082260202263       -5.56577061423557
C            3.26527761457748       -1.64731042746935        0.45864790549090
C            3.27660307472753       -2.30141714476878       -0.75821701396691
C            3.44644062291204       -0.27656017246987        0.51192393539775
C            3.46994296611125       -1.59902963148380       -1.94539165200691
C            3.48533748312965       -2.31887964954932       -3.23146609583664
C            3.57664537688718        4.53093202546497       -0.60688668478745
C            3.64574130288163       -3.69997124351931       -5.66399669974376
C            3.63361685349475        3.45446868998860       -3.14841142721420
C            3.64994336294371        0.43120636830191       -0.65967292741204
C            3.66669598464684       -0.22228465421629       -1.87651932224794
C            4.23957677148333       -3.47989765975053       -3.35722835003677
C            4.31684846796630       -4.17509890500902       -4.54933510163410
C            4.74380363342126        3.95751251436458       -1.08238341054071
C            4.76535870708311        3.41364813600791       -2.35591777074617
Cu           2.52765669704612        0.93854854308530       -5.35504925831850
H           -0.43413106863321        1.35762604103522       -5.96018156365022
H            0.60109747856632        2.71740939793361      -11.89983548601013
H           -0.77343516395787        6.69461414178473       -4.59572381299151
H            0.80685399245018       -2.42394021880625       -2.67621218380445
H           -1.11604044315332        2.13824599065465       -2.82751394269792
H            1.14218207436639        6.26552961140498       -3.12459762651862
H           -1.21497920823083       -1.88264040590404       -1.38296027017732
H            1.43858617953262        4.08373137153123      -12.67681662794110
H            1.53856937960560        5.01846283040657       -1.01625636417588
H            1.62793801351949        1.28446947508108      -10.36543725830201
H            1.97071482478140        0.16216613420954       -8.24257327642811
H            2.15154524611691        5.07113025742716       -8.45364002841576
H           -2.17752918566998        0.38570292251670       -1.47214428972633
H           -2.27111467679053        1.80358508792969       -7.51956338361202
H            2.36918651460241       -2.16051630789192       -6.42762954030895
H            2.37207516611347        2.66789391944357      -12.13081740614105
H           -2.36382453184255        5.88896494987071       -6.28959708732833
H            2.49599907896207        3.93181671175010       -6.29811195514523
H            3.10978290489920       -2.20918482557251        1.37037504065534
H            3.11737586508748       -3.37087837098647       -0.79271233187522
H           -3.25372363400294        4.06176522629917       -7.67806641703068
H            3.42981713939257        0.23813991327643        1.46318850835773
H            3.54849801450419        4.94866572861791        0.39151911773645
H            3.66944129086916        3.04280034056837       -4.14418242225777
H            3.71333416270568       -4.22417313025512       -6.60765046274856
H            3.79765164080032        1.50056731449795       -0.62640626809607
H            3.85218095737830        0.34219388122130       -2.77629243103981
H            4.80023114011387       -3.82936736874054       -2.50082581309583
H            4.91202667699258       -5.07541471891331       -4.61441990431349
H            5.62969982243276        3.93170779027419       -0.46192063086960
H            5.66262332358755        2.95217040332115       -2.74075309558905
N            1.23015003340151        1.82350384732272       -4.12706027887395
N            2.00510630134875       -0.70814847007724       -4.36399460677833
O            1.69624504974686        4.00650462273393      -10.69958482763970
77
 energy: -121.777340377913 gnorm: 0.018754165656 xtb: 6.5.1 (fef0646)
Br           5.02453255708805        0.74356543368704       -5.53214831067908
C           -0.33236306939163        3.35452126146072       -5.20263340500767
C           -0.33757429163379        5.69108072234329       -4.52597706336025
C            0.41579029864064       -1.41305441572869       -2.68000532123007
C            0.50711592653947        0.88465934958334       -3.50483632820472
C            0.71972178071108        5.44314661955742       -3.70225835612426
C           -0.67421417505896        1.14648593694561       -2.79817824263713
C            0.74518846050993        3.10001614658682       -4.29710904145264
C           -0.72639769070354       -1.11136671891779       -1.97527206611718
C           -0.86153397575236        2.33821381304114       -6.01640072030073
C           -0.87536856567439        4.65722725740138       -5.31389720666794
C            1.03455816831324       -0.44450866007837       -3.47931454118867
C            1.28751409679252        4.16345113961366       -3.58236973323011
C           -1.26958752624158        0.16748556979845       -2.03582949461834
C            1.51897642846056        3.31547649545851      -11.90546915245865
C            1.81367918857567        1.88953499109904       -9.46989153106075
C            1.86317667844527        3.27074720880928       -9.54797234549777
C           -1.88180451683229        2.59186994861125       -6.88906865548743
C           -1.93658291777873        4.88549444031929       -6.20882201284859
C            1.99320155263774        1.26234225483811       -8.24230195496186
C            2.10419266609229        4.00607599669419       -8.39362121275473
C            2.20327833586355        1.99024052519400       -7.08007227457625
C            2.28472990946453        3.36976786112767       -7.18080293651850
C            2.43656160203006        4.56741749200447       -1.41078752288252
C            2.45224546654347        4.02910566266582       -2.69434617099791
C           -2.43196707328150        3.87509652081914       -6.98182370113530
C            2.77748642565553       -1.85032166697904       -4.35130062837516
C            2.89161258004357       -2.54608169102295       -5.55794568027215
C            3.25705330929257       -1.65022871103054        0.45282873671129
C            3.26638235601382       -2.30526838195935       -0.76140711656883
C            3.43971185103044       -0.28016847528259        0.50491198893457
C            3.45889352352735       -1.60201357964867       -1.94637019212724
C            3.48171127287514       -2.31937775055866       -3.22672570236933
C            3.56553773958069        4.52626407471199       -0.61592231928956
C            3.64545494827881       -3.69264328687381       -5.65452124808294
C            3.62779757788553        3.45064018886593       -3.15518145804850
C            3.64247766324051        0.42685001548598       -0.66609804970980
C            3.65634788557385       -0.22754524068879       -1.88077513577550
C            4.23814616448768       -3.47631612594847       -3.34832589722182
C            4.31754430149095       -4.16740328757969       -4.54079822720682
C            4.73226519633219        3.95127778716375       -1.08921328474598
C            4.75732563955941        3.40898256346830       -2.36243835465445
Cu           2.55477116491908        0.93599861201873       -5.35447874795950
H           -0.43868736729893        1.34730940956125       -5.95377581506501
H            0.60081008791792        2.71694608926349      -11.89925134903641
H           -0.76557451648649        6.68059735679925       -4.59384233310684
H            0.81141978210189       -2.41867225844395       -2.67561284253282
H           -1.10076250327643        2.13916764212000       -2.83497158059500
H            1.14979950493803        6.24922666185288       -3.12460065721213
H           -1.21409382315680       -1.87568922655568       -1.38737198765702
H            1.44037800920589        4.08210352637591      -12.67605214660978
H            1.53176296909362        5.01654834220792       -1.02611258631967
H            1.63725260633441        1.28462915465697      -10.34835452838838
H            1.96739675713829        0.18137576406485       -8.22468192501554
H            2.15179782021795        5.08055300211803       -8.46515213029129
H           -2.16995722492080        0.39164273744267       -1.48183311605444
H           -2.26961909675419        1.80278037707013       -7.51477617741753
H            2.36377924156147       -2.16211954162201       -6.41865806664515
H            2.37266178789138        2.66598829605013      -12.12902636150016
H           -2.34790817453278        5.88257824627534       -6.28085560799015
H            2.49224957337968        3.96233271597843       -6.30395887487380
H            3.10724035474934       -2.21082252507896        1.36437330594439
H            3.11295720619336       -3.37466262738390       -0.79409073712702
H           -3.24404870437959        4.05911500592775       -7.67018963963300
H            3.42973808139398        0.23310217307549        1.45503161497155
H            3.53753605274530        4.94728026759212        0.37941710706387
H            3.65979674533147        3.05011176937297       -4.15498647318124
H            3.71379086218711       -4.21652210044050       -6.59627419669301
H            3.79657956518132        1.49383607594213       -0.63301530765794
H            3.84631626132127        0.33811848065462       -2.77772947289063
H            4.79773170868996       -3.82623745742845       -2.49261027875391