
                                 *****************
                                 * O   R   C   A *
                                 *****************

                                            #,                                       
                                            ###                                      
                                            ####                                     
                                            #####                                    
                                            ######                                   
                                           ########,                                 
                                     ,,################,,,,,                         
                               ,,#################################,,                 
                          ,,##########################################,,             
                       ,#########################################, ''#####,          
                    ,#############################################,,   '####,        
                  ,##################################################,,,,####,       
                ,###########''''           ''''###############################       
              ,#####''   ,,,,##########,,,,          '''####'''          '####       
            ,##' ,,,,###########################,,,                        '##       
           ' ,,###''''                  '''############,,,                           
         ,,##''                                '''############,,,,        ,,,,,,###''
      ,#''                                            '''#######################'''  
     '                                                          ''''####''''         
             ,#######,   #######,   ,#######,      ##                                
            ,#'     '#,  ##    ##  ,#'     '#,    #''#        ######   ,####,        
            ##       ##  ##   ,#'  ##            #'  '#       #        #'  '#        
            ##       ##  #######   ##           ,######,      #####,   #    #        
            '#,     ,#'  ##    ##  '#,     ,#' ,#      #,         ##   #,  ,#        
             '#######'   ##     ##  '#######'  #'      '#     #####' # '####'        



                  #######################################################
                  #                        -***-                        #
                  #          Department of theory and spectroscopy      #
                  #    Directorship and core code : Frank Neese         #
                  #        Max Planck Institute fuer Kohlenforschung    #
                  #                Kaiser Wilhelm Platz 1               #
                  #                 D-45470 Muelheim/Ruhr               #
                  #                      Germany                        #
                  #                                                     #
                  #                  All rights reserved                #
                  #                        -***-                        #
                  #######################################################


                         Program Version 5.0.1 -  RELEASE  -


 With contributions from (in alphabetic order):
   Daniel Aravena         : Magnetic Suceptibility
   Michael Atanasov       : Ab Initio Ligand Field Theory (pilot matlab implementation)
   Alexander A. Auer      : GIAO ZORA, VPT2 properties, NMR spectrum
   Ute Becker             : Parallelization
   Giovanni Bistoni       : ED, misc. LED, open-shell LED, HFLD
   Martin Brehm           : Molecular dynamics
   Dmytro Bykov           : SCF Hessian
   Vijay G. Chilkuri      : MRCI spin determinant printing, contributions to CSF-ICE
   Dipayan Datta          : RHF DLPNO-CCSD density
   Achintya Kumar Dutta   : EOM-CC, STEOM-CC
   Dmitry Ganyushin       : Spin-Orbit,Spin-Spin,Magnetic field MRCI
   Miquel Garcia          : C-PCM and meta-GGA Hessian, CC/C-PCM, Gaussian charge scheme
   Yang Guo               : DLPNO-NEVPT2, F12-NEVPT2, CIM, IAO-localization
   Andreas Hansen         : Spin unrestricted coupled pair/coupled cluster methods
   Benjamin Helmich-Paris : MC-RPA, TRAH-SCF, COSX integrals
   Lee Huntington         : MR-EOM, pCC
   Robert Izsak           : Overlap fitted RIJCOSX, COSX-SCS-MP3, EOM
   Marcus Kettner         : VPT2
   Christian Kollmar      : KDIIS, OOCD, Brueckner-CCSD(T), CCSD density, CASPT2, CASPT2-K
   Simone Kossmann        : Meta GGA functionals, TD-DFT gradient, OOMP2, MP2 Hessian
   Martin Krupicka        : Initial AUTO-CI
   Lucas Lang             : DCDCAS
   Marvin Lechner         : AUTO-CI (C++ implementation), FIC-MRCC
   Dagmar Lenk            : GEPOL surface, SMD
   Dimitrios Liakos       : Extrapolation schemes; Compound Job, initial MDCI parallelization
   Dimitrios Manganas     : Further ROCIS development; embedding schemes
   Dimitrios Pantazis     : SARC Basis sets
   Anastasios Papadopoulos: AUTO-CI, single reference methods and gradients
   Taras Petrenko         : DFT Hessian,TD-DFT gradient, ASA, ECA, R-Raman, ABS, FL, XAS/XES, NRVS
   Peter Pinski           : DLPNO-MP2, DLPNO-MP2 Gradient
   Christoph Reimann      : Effective Core Potentials
   Marius Retegan         : Local ZFS, SOC
   Christoph Riplinger    : Optimizer, TS searches, QM/MM, DLPNO-CCSD(T), (RO)-DLPNO pert. Triples
   Tobias Risthaus        : Range-separated hybrids, TD-DFT gradient, RPA, STAB
   Michael Roemelt        : Original ROCIS implementation
   Masaaki Saitow         : Open-shell DLPNO-CCSD energy and density
   Barbara Sandhoefer     : DKH picture change effects
   Avijit Sen             : IP-ROCIS
   Kantharuban Sivalingam : CASSCF convergence, NEVPT2, FIC-MRCI
   Bernardo de Souza      : ESD, SOC TD-DFT
   Georgi Stoychev        : AutoAux, RI-MP2 NMR, DLPNO-MP2 response
   Willem Van den Heuvel  : Paramagnetic NMR
   Boris Wezisla          : Elementary symmetry handling
   Frank Wennmohs         : Technical directorship


 We gratefully acknowledge several colleagues who have allowed us to
 interface, adapt or use parts of their codes:
   Stefan Grimme, W. Hujo, H. Kruse, P. Pracht,  : VdW corrections, initial TS optimization,
                  C. Bannwarth, S. Ehlert          DFT functionals, gCP, sTDA/sTD-DF
   Ed Valeev, F. Pavosevic, A. Kumar             : LibInt (2-el integral package), F12 methods
   Garnet Chan, S. Sharma, J. Yang, R. Olivares  : DMRG
   Ulf Ekstrom                                   : XCFun DFT Library
   Mihaly Kallay                                 : mrcc  (arbitrary order and MRCC methods)
   Jiri Pittner, Ondrej Demel                    : Mk-CCSD
   Frank Weinhold                                : gennbo (NPA and NBO analysis)
   Christopher J. Cramer and Donald G. Truhlar   : smd solvation model
   Lars Goerigk                                  : TD-DFT with DH, B97 family of functionals
   V. Asgeirsson, H. Jonsson                     : NEB implementation
   FAccTs GmbH                                   : IRC, NEB, NEB-TS, DLPNO-Multilevel, CI-OPT
                                                   MM, QMMM, 2- and 3-layer-ONIOM, Crystal-QMMM,
                                                   LR-CPCM, SF, NACMEs, symmetry and pop. for TD-DFT,
                                                   nearIR, NL-DFT gradient (VV10), updates on ESD,
                                                   ML-optimized integration grids
   S Lehtola, MJT Oliveira, MAL Marques          : LibXC Library
   Liviu Ungur et al                             : ANISO software


 Your calculation uses the libint2 library for the computation of 2-el integrals
 For citations please refer to: http://libint.valeyev.net

 Your ORCA version has been built with support for libXC version: 5.1.0
 For citations please refer to: https://tddft.org/programs/libxc/

 This ORCA versions uses:
   CBLAS   interface :  Fast vector & matrix operations
   LAPACKE interface :  Fast linear algebra routines
   SCALAPACK package :  Parallel linear algebra routines
   Shared memory     :  Shared parallel matrices
   BLAS/LAPACK       :  OpenBLAS 0.3.15  USE64BITINT DYNAMIC_ARCH NO_AFFINITY Zen SINGLE_THREADED
        Core in use  :  Zen
   Copyright (c) 2011-2014, The OpenBLAS Project


Your calculation utilizes the atom-pairwise dispersion correction
with the Becke-Johnson damping scheme (D3BJ)
Cite in your paper:
S.Grimme, S.Ehrlich, L.Goerigk, J Comput Chem, (2011), 32, 1456–1465 
S.Grimme, J.Antony, S.Ehrlich and H.Krieg, J.Chem.Phys., 132, (2010), 154104 
   

Your calculation employs the composite approach B97-3c by Grimme and coworkers.
For the correct reference, please check the publication list of the Grimme group:
http://www.thch.uni-bonn.de/tc/index.php?section=publikationen&subsection=grimme#2017
   

XCFun DFT library Copyright 2009-2010 Ulf Ekstrom and contributors.
See http://admol.org/xcfun for more information.
This is free software; see the source code for copying conditions.
There is ABSOLUTELY NO WARRANTY; not even for MERCHANTABILITY or FITNESS FOR A PARTICULAR PURPOSE.
For details see the documentation.
Scientific users of this library should cite U. Ekstrom, L. Visscher, R. Bast, A. J. Thorvaldsen and K. Ruud;
J.Chem.Theor.Comp. 2010, DOI: 10.1021/ct100117s
XCFun Version 0.99 

================================================================================

----- Orbital basis set information -----
Your calculation utilizes the basis: def2-SVP
   F. Weigend and R. Ahlrichs, Phys. Chem. Chem. Phys. 7, 3297 (2005).

The basis set includes atom-specific modifications.

Your calculation utilizes the basis: def2-TZVP
   F. Weigend and R. Ahlrichs, Phys. Chem. Chem. Phys. 7, 3297 (2005).

Your calculation utilizes the basis: STO-3G
   H-Ne       : W. J. Hehre, R. F. Stewart and J. A. Pople, J. Chem. Phys. 2657 (1969).
   Na-Ar      : W. J. Hehre, R. Ditchfield, R. F. Stewart and J. A. Pople, J. Chem. Phys. 2769 (1970).
   K,Ca,Ga-Kr : W. J. Pietro, B. A. Levy, W. J. Hehre and R. F. Stewart, J. Am. Chem. Soc. 19, 2225 (1980).
   Sc-Zn,Y-Cd : W. J. Pietro and W. J. Hehre, J. Comp. Chem. 4, 241 (1983).

----- AuxJ basis set information -----
Your calculation utilizes the basis: def2-mTZVP/J
================================================================================
                                        WARNINGS
                       Please study these warnings very carefully!
================================================================================

WARNING: Old DensityContainer found on disk!
         Will remove this file - 
         If you want to keep old densities, please start your calculation with a different basename. 


WARNING: Geometry Optimization
  ===> : Switching off AutoStart
         For restart on a previous wavefunction, please use MOREAD

INFO   : the flag for use of the SHARK integral package has been found!

================================================================================
                                       INPUT FILE
================================================================================
NAME = /scratch/negishi/li1724/Test-CentralizedCode-4-5/DFT/CWMHSQPVYVHHDK-QJPJQTDYNZXKQF_0_0/CWMHSQPVYVHHDK-QJPJQTDYNZXKQF_0_0-COPT.in
|  1> ! B97-3c def2-SVP CPCM(DMSO) defgrid2 OPT Freq
|  2> 
|  3> %scf
|  4>   MaxIter 500
|  5> end
|  6> 
|  7> %pal
|  8>   nproc 32
|  9> end
| 10> 
| 11> %maxcore 7200
| 12> 
| 13> %geom
| 14>   Constraints
| 15>     {C 0 C}
| 16>     {C 42 C}
| 17>     {C 37 C}
| 18>     {C 21 C}
| 19>     {C 42 C}
| 20>   end
| 21> end
| 22> 
| 23> %base "CWMHSQPVYVHHDK-QJPJQTDYNZXKQF_0_0-COPT"
| 24> 
| 25> *xyz -1 1
| 26> Br   0.37276000   3.22237700  -0.47518200 newgto "def2-TZVP" end
| 27> C   -2.72844100  -0.39482200  -1.63430400 
| 28> C   -4.53658100  -1.40534300  -0.35859100 
| 29> C    2.83195100  -2.29576300  -1.36640400 
| 30> C    0.48936700  -1.71371700  -1.15108900 
| 31> C   -3.60649900  -2.02291800   0.43543600 
| 32> C    0.17120800  -3.04405200  -1.40317300 
| 33> C   -1.75853000  -1.00443700  -0.76478000 
| 34> C    2.49054600  -3.62310800  -1.56172000 
| 35> C   -2.31269600   0.34991300  -2.75040400 
| 36> C   -4.11615700  -0.59623900  -1.43072400 
| 37> C    1.85255200  -1.32018400  -1.17562900 
| 38> C   -2.22783900  -1.86020600   0.25322400 
| 39> C    1.15989300  -3.99546300  -1.60002300 
| 40> C   -5.45848500   0.69526100   2.31027800 
| 41> C   -3.68107800   2.32200800  -0.40072100 
| 42> C   -3.89069700   1.64442100   0.80032500 
| 43> C   -3.22141400   0.89796500  -3.62143600 
| 44> C   -5.02876500   0.00735400  -2.31908200 
| 45> C   -2.40708600   2.58282600  -0.85049900 
| 46> C   -2.79302900   1.26384000   1.56835000 
| 47> C   -1.32285600   2.17109900  -0.08511800 newgto "def2-TZVP" end
| 48> C   -1.51187400   1.57162500   1.14921200 
| 49> C   -1.59518200  -3.94949800   1.42256100 
| 50> C   -1.31610600  -2.61380300   1.12630100 
| 51> C   -4.59221200   0.73966600  -3.39184800 
| 52> C    3.43352300   0.45722500  -1.08794800 
| 53> C    4.02286900   0.70196500  -2.33408400 
| 54> C    3.73441600  -0.77871500   3.48744600 
| 55> C    4.24735700  -0.52505100   2.22932900 
| 56> C    2.61367200  -0.09779500   3.93311100 
| 57> C    3.65619400   0.42268800   1.40283000 
| 58> C    4.20818600   0.69820900   0.06620500 
| 59> C   -0.74581100  -4.70003200   2.21245500 
| 60> C    5.31223400   1.17948600  -2.44135200 
| 61> C   -0.15664800  -2.05501900   1.66245900 
| 62> C    2.01978600   0.84963500   3.11819700 
| 63> C    2.53613700   1.11062700   1.86220100 newgto "def2-TZVP" end
| 64> C    5.51003100   1.15953200  -0.05953900 
| 65> C    6.06585700   1.41024700  -1.30128900 
| 66> C    0.40856100  -4.13327000   2.72445000 
| 67> C    0.69679300  -2.80761600   2.44602500 
| 68> Cu   0.55184300   0.87678200  -0.46169200 newgto "def2-TZVP" end
| 69> H   -1.24949600   0.46593100  -2.91272600 newgto "STO-3G" end
| 70> H   -5.07947600   1.19219600   3.21058400 newgto "STO-3G" end
| 71> H   -5.59541400  -1.54919300  -0.18778000 newgto "STO-3G" end
| 72> H    3.87409200  -2.00016100  -1.35611400 newgto "STO-3G" end
| 73> H   -0.86932200  -3.33623800  -1.45908500 newgto "STO-3G" end
| 74> H   -3.94124900  -2.64573200   1.25813200 newgto "STO-3G" end
| 75> H    3.27073300  -4.36297100  -1.69627600 newgto "STO-3G" end
| 76> H   -6.54370200   0.62125000   2.37246700 newgto "STO-3G" end
| 77> H   -2.47614900  -4.41290100   0.99870600 newgto "STO-3G" end
| 78> H   -4.53870200   2.63007000  -0.97544000 newgto "STO-3G" end
| 79> H   -2.25463000   3.10644400  -1.77996800 newgto "STO-3G" end
| 80> H   -2.91422000   0.73893100   2.50213600 newgto "STO-3G" end
| 81> H    0.88212800  -5.02644100  -1.78127500 newgto "STO-3G" end
| 82> H   -2.88380100   1.45534800  -4.48536600 newgto "STO-3G" end
| 83> H    3.43432300   0.50408700  -3.21906900 newgto "STO-3G" end
| 84> H   -5.02761500  -0.30783000   2.23676000 newgto "STO-3G" end
| 85> H   -6.08838600  -0.12466900  -2.13892800 newgto "STO-3G" end
| 86> H   -0.67299600   1.32451500   1.78362600 newgto "STO-3G" end
| 87> H    4.20654800  -1.51521000   4.12402800 newgto "STO-3G" end
| 88> H    5.11361800  -1.06691700   1.87653500 newgto "STO-3G" end
| 89> H   -5.30487700   1.18898100  -4.07259400 newgto "STO-3G" end
| 90> H    2.20800000  -0.30197800   4.91464000 newgto "STO-3G" end
| 91> H   -0.97745300  -5.73766100   2.41687000 newgto "STO-3G" end
| 92> H    0.08806200  -1.02244000   1.45943100 newgto "STO-3G" end
| 93> H    5.73797900   1.36974600  -3.41839400 newgto "STO-3G" end
| 94> H    1.15484300   1.39514700   3.47330400 newgto "STO-3G" end
| 95> H    2.13012600   1.91018100   1.26208500 newgto "STO-3G" end
| 96> H    6.09147800   1.33180100   0.83807100 newgto "STO-3G" end
| 97> H    7.08029600   1.77744100  -1.37928800 newgto "STO-3G" end
| 98> H    1.08444500  -4.72309000   3.32872700 newgto "STO-3G" end
| 99> H    1.59890900  -2.35637700   2.83299400 newgto "STO-3G" end
|100> N   -0.44904800  -0.71641600  -1.00534100 newgto "def2-TZVP" end
|101> N    2.12643600   0.00464900  -1.01921800 newgto "def2-TZVP" end
|102> O   -5.19375500   1.44699100   1.15304800 
|103> *
|104> 
|105>                          ****END OF INPUT****
================================================================================

                       *****************************
                       * Geometry Optimization Run *
                       *****************************

Geometry optimization settings:
Update method            Update   .... BFGS
Choice of coordinates    CoordSys .... Z-matrix Internals
Initial Hessian          InHess   .... Almoef's Model

Convergence Tolerances:
Energy Change            TolE     ....  5.0000e-06 Eh
Max. Gradient            TolMAXG  ....  3.0000e-04 Eh/bohr
RMS Gradient             TolRMSG  ....  1.0000e-04 Eh/bohr
Max. Displacement        TolMAXD  ....  4.0000e-03 bohr
RMS Displacement         TolRMSD  ....  2.0000e-03 bohr
Strict Convergence                ....  False
------------------------------------------------------------------------------
                        ORCA OPTIMIZATION COORDINATE SETUP
------------------------------------------------------------------------------

The optimization will be done in new redundant internal coordinates
Making redundant internal coordinates   ...  (new redundants) done
Evaluating the initial hessian          ...  (Almloef) done
Evaluating the coordinates              ...  done
Calculating the B-matrix                .... done
Calculating the G-matrix                .... done
Diagonalizing the G-matrix              .... done
Imposing constraints:
 Iter   0:  RMS(Cart)=    0.0000000000 RMS(Int)=    0.0000000000
CONVERGED
Will constrain atom 0 coordinate 1 
Will constrain atom 0 coordinate 2 
Will constrain atom 0 coordinate 3 
Will constrain atom 21 coordinate 1 
Will constrain atom 21 coordinate 2 
Will constrain atom 21 coordinate 3 
Will constrain atom 37 coordinate 1 
Will constrain atom 37 coordinate 2 
Will constrain atom 37 coordinate 3 
Will constrain atom 42 coordinate 1 
Will constrain atom 42 coordinate 2 
Will constrain atom 42 coordinate 3 
Small eigenvalue found = 1.244e-03
Small eigenvalue found = 1.917e-03
Small eigenvalue found = 2.904e-03
Small eigenvalue found = 3.929e-03
Small eigenvalue found = 4.859e-03
Small eigenvalue found = 6.241e-03
Small eigenvalue found = 8.870e-03
Small eigenvalue found = 9.950e-03
Small eigenvalue found = 1.708e-02
Small eigenvalue found = 1.758e-02
Small eigenvalue found = 2.039e-02
Small eigenvalue found = 2.501e-02
Small eigenvalue found = 2.776e-02
The first mode is                       ....  347
The number of degrees of freedom        ....  231
Storing new coordinates                 .... done

    -----------------------------------------------------------------
                    Redundant Internal Coordinates


    -----------------------------------------------------------------
         Definition                    Initial Value    Approx d2E/dq
    -----------------------------------------------------------------
      1. B(C   5,C   2)                  1.3700         0.672403   
      2. B(C   6,C   4)                  1.3909         0.622767   
      3. B(C   7,C   1)                  1.4382         0.523399   
      4. B(C   8,C   3)                  1.3844         0.637794   
      5. B(C   9,C   1)                  1.4047         0.591973   
      6. B(C  10,C   1)                  1.4170         0.565886   
      7. B(C  10,C   2)                  1.4074         0.586032   
      8. B(C  11,C   4)                  1.4191         0.561524   
      9. B(C  11,C   3)                  1.3955         0.612338   
     10. B(C  12,C   7)                  1.4103         0.579914   
     11. B(C  12,C   5)                  1.4001         0.601960   
     12. B(C  13,C   6)                  1.3862         0.633680   
     13. B(C  13,C   8)                  1.3823         0.642723   
     14. B(C  16,C  15)                  1.3948         0.613788   
     15. B(C  17,C   9)                  1.3729         0.665330   
     16. B(C  18,C  10)                  1.4094         0.581856   
     17. B(C  19,C  15)                  1.3760         0.657766   
     18. B(C  20,C  16)                  1.3927         0.618658   
     19. B(C  21,Br  0)                  2.0328         0.197979   
     20. B(C  21,C  19)                  1.3896         0.625803   
     21. B(C  22,C  21)                  1.3852         0.636006   
     22. B(C  22,C  20)                  1.3827         0.641858   
     23. B(C  24,C  12)                  1.4702         0.465390   
     24. B(C  24,C  23)                  1.3963         0.610437   
     25. B(C  25,C  17)                  1.3989         0.604750   
     26. B(C  25,C  18)                  1.3703         0.671722   
     27. B(C  27,C  26)                  1.4000         0.602196   
     28. B(C  29,C  28)                  1.3821         0.643099   
     29. B(C  30,C  28)                  1.3850         0.636285   
     30. B(C  31,C  29)                  1.3895         0.625885   
     31. B(C  32,C  26)                  1.4108         0.578917   
     32. B(C  32,C  31)                  1.4721         0.462064   
     33. B(C  33,C  23)                  1.3815         0.644509   
     34. B(C  34,C  27)                  1.3791         0.650255   
     35. B(C  35,C  24)                  1.3943         0.615024   
     36. B(C  36,C  30)                  1.3836         0.639609   
     37. B(C  37,C  31)                  1.3924         0.619286   
     38. B(C  37,C  36)                  1.3828         0.641436   
     39. B(C  38,C  32)                  1.3869         0.632003   
     40. B(C  39,C  34)                  1.3860         0.634091   
     41. B(C  39,C  38)                  1.3834         0.640175   
     42. B(C  40,C  33)                  1.3842         0.638317   
     43. B(C  41,C  35)                  1.3816         0.644445   
     44. B(C  41,C  40)                  1.3849         0.636605   
     45. B(Cu 42,Br  0)                  2.3525         0.619175   
     46. B(Cu 42,C   4)                  2.6814         0.055021   
     47. B(Cu 42,C  11)                  2.6511         0.061503   
     48. B(Cu 42,C  21)                  2.3090         0.216088   
     49. B(Cu 42,C  22)                  2.7086         0.049780   
     50. B(H  43,C   9)                  1.0818         0.371168   
     51. B(H  44,C  14)                  1.0960         0.352293   
     52. B(H  45,C   2)                  1.0821         0.370669   
     53. B(H  46,C   3)                  1.0833         0.369070   
     54. B(H  47,C   6)                  1.0822         0.370540   
     55. B(H  48,C   5)                  1.0848         0.367050   
     56. B(H  49,C   8)                  1.0836         0.368663   
     57. B(H  50,C  14)                  1.0895         0.360743   
     58. B(H  51,C  23)                  1.0819         0.370982   
     59. B(H  52,C  15)                  1.0774         0.377204   
     60. B(H  53,C  19)                  1.0777         0.376813   
     61. B(H  54,C  20)                  1.0780         0.376273   
     62. B(H  55,C  13)                  1.0830         0.369460   
     63. B(H  56,C  17)                  1.0821         0.370645   
     64. B(H  57,C  27)                  1.0811         0.372091   
     65. B(H  58,C  14)                  1.0942         0.354603   
     66. B(H  58,H  48)                  2.7575         0.000151   
     67. B(H  59,C  18)                  1.0829         0.369610   
     68. B(H  60,C  22)                  1.0804         0.373028   
     69. B(H  61,C  28)                  1.0819         0.370937   
     70. B(H  62,C  29)                  1.0810         0.372249   
     71. B(H  63,C  25)                  1.0831         0.369291   
     72. B(H  63,H  52)                  3.5009         0.000010   
     73. B(H  64,C  30)                  1.0815         0.371511   
     74. B(H  65,C  33)                  1.0826         0.369964   
     75. B(H  66,C  35)                  1.0804         0.372989   
     76. B(H  67,C  34)                  1.0826         0.369995   
     77. B(H  68,C  36)                  1.0825         0.370157   
     78. B(H  69,C  37)                  1.0790         0.374931   
     79. B(H  70,C  38)                  1.0833         0.369122   
     80. B(H  71,C  39)                  1.0817         0.371295   
     81. B(H  72,C  40)                  1.0816         0.371386   
     82. B(H  73,C  41)                  1.0804         0.373083   
     83. B(H  73,C  30)                  2.7095         0.000939   
     84. B(N  74,C   4)                  1.3771         0.586700   
     85. B(N  74,C   7)                  1.3622         0.619784   
     86. B(N  74,Cu 42)                  1.9585         0.701516   
     87. B(N  75,C  11)                  1.3619         0.620545   
     88. B(N  75,C  26)                  1.3849         0.570122   
     89. B(N  75,Cu 42)                  1.8844         0.921061   
     90. B(O  76,C  14)                  1.4051         0.529362   
     91. B(O  76,C  16)                  1.3643         0.614973   
     92. A(C  21,Br  0,Cu 42)           63.0482         0.443283   
     93. A(C   7,C   1,C  10)          120.8877         0.414294   
     94. A(C   9,C   1,C  10)          118.6450         0.423486   
     95. A(C   7,C   1,C   9)          120.3651         0.417629   
     96. A(C  10,C   2,H  45)          119.2715         0.351276   
     97. A(C   5,C   2,C  10)          119.8579         0.436008   
     98. A(C   5,C   2,H  45)          120.8548         0.359566   
     99. A(C   8,C   3,C  11)          121.0975         0.435307   
    100. A(C  11,C   3,H  46)          118.8885         0.353637   
    101. A(C   8,C   3,H  46)          120.0136         0.356088   
    102. A(Cu 42,C   4,N  74)           44.6856         0.314614   
    103. A(C   6,C   4,C  11)          118.8063         0.426755   
    104. A(C   6,C   4,Cu 42)          167.4145         0.319579   
    105. A(C   6,C   4,N  74)          123.7776         0.427318   
    106. A(C  11,C   4,Cu 42)           73.3901         0.314239   
    107. A(C  11,C   4,N  74)          117.1033         0.419483   
    108. A(C   2,C   5,C  12)          122.7287         0.438120   
    109. A(C  12,C   5,H  48)          117.9867         0.352288   
    110. A(C   2,C   5,H  48)          119.2655         0.358966   
    111. A(C  13,C   6,H  47)          119.5467         0.355937   
    112. A(C   4,C   6,C  13)          121.2699         0.436124   
    113. A(C   4,C   6,H  47)          119.1784         0.354889   
    114. A(C   1,C   7,N  74)          116.8658         0.418329   
    115. A(C   1,C   7,C  12)          117.9826         0.416102   
    116. A(C  12,C   7,N  74)          125.1469         0.426062   
    117. A(C   3,C   8,H  49)          119.6437         0.356021   
    118. A(C  13,C   8,H  49)          120.3797         0.356487   
    119. A(C   3,C   8,C  13)          119.9721         0.439124   
    120. A(C   1,C   9,C  17)          121.3220         0.435969   
    121. A(C   1,C   9,H  43)          117.8383         0.351956   
    122. A(C  17,C   9,H  43)          120.8325         0.359001   
    123. A(C   1,C  10,C  18)          118.8634         0.422184   
    124. A(C   1,C  10,C   2)          118.9283         0.422723   
    125. A(C   2,C  10,C  18)          122.2036         0.424832   
    126. A(C   3,C  11,C   4)          118.8612         0.425467   
    127. A(Cu 42,C  11,N  75)           42.4018         0.323329   
    128. A(C   4,C  11,N  75)          117.4506         0.423705   
    129. A(C   3,C  11,N  75)          123.6863         0.430333   
    130. A(C   4,C  11,Cu 42)           75.7499         0.319988   
    131. A(C   3,C  11,Cu 42)          163.8440         0.324562   
    132. A(C   7,C  12,C  24)          122.2313         0.407520   
    133. A(C   5,C  12,C   7)          119.4805         0.426621   
    134. A(C   5,C  12,C  24)          118.2803         0.410221   
    135. A(C   6,C  13,H  55)          119.6185         0.355761   
    136. A(C   8,C  13,H  55)          120.5280         0.356618   
    137. A(C   6,C  13,C   8)          119.8534         0.438611   
    138. A(H  50,C  14,O  76)          105.7245         0.341642   
    139. A(H  58,C  14,O  76)          111.1571         0.340662   
    140. A(H  44,C  14,O  76)          111.6427         0.340290   
    141. A(H  44,C  14,H  50)          109.1698         0.289922   
    142. A(H  44,C  14,H  58)          109.5536         0.289143   
    143. A(H  50,C  14,H  58)          109.4989         0.290219   
    144. A(C  16,C  15,C  19)          120.8424         0.437919   
    145. A(C  19,C  15,H  52)          120.5608         0.359289   
    146. A(C  16,C  15,H  52)          118.5944         0.355088   
    147. A(C  15,C  16,C  20)          119.2850         0.433112   
    148. A(C  15,C  16,O  76)          115.8774         0.429819   
    149. A(C  20,C  16,O  76)          124.7961         0.430429   
    150. A(C   9,C  17,H  56)          120.3729         0.358915   
    151. A(C  25,C  17,H  56)          119.6722         0.353146   
    152. A(C   9,C  17,C  25)          119.9546         0.437651   
    153. A(C  10,C  18,H  59)          118.4589         0.350683   
    154. A(C  25,C  18,H  59)          120.4729         0.359329   
    155. A(C  10,C  18,C  25)          121.0674         0.435367   
    156. A(C  21,C  19,H  53)          120.5741         0.356196   
    157. A(C  15,C  19,C  21)          119.0921         0.439453   
    158. A(C  15,C  19,H  53)          120.3319         0.359225   
    159. A(C  22,C  20,H  54)          118.3675         0.357645   
    160. A(C  16,C  20,C  22)          120.1522         0.436612   
    161. A(C  16,C  20,H  54)          121.4753         0.355415   
    162. A(C  22,C  21,Cu 42)           90.7750         0.404757   
    163. A(C  19,C  21,Cu 42)          135.2156         0.403604   
    164. A(Br  0,C  21,C  19)          113.0734         0.378748   
    165. A(Br  0,C  21,C  22)          120.5721         0.379811   
    166. A(C  19,C  21,C  22)          120.8364         0.436795   
    167. A(Br  0,C  21,Cu 42)           65.2522         0.352057   
    168. A(C  20,C  22,Cu 42)          146.0110         0.315958   
    169. A(C  21,C  22,Cu 42)           58.4720         0.315488   
    170. A(C  20,C  22,C  21)          119.5319         0.438795   
    171. A(Cu 42,C  22,H  60)           72.4807         0.262604   
    172. A(C  21,C  22,H  60)          121.0841         0.356563   
    173. A(C  20,C  22,H  60)          119.3754         0.357119   
    174. A(C  24,C  23,C  33)          121.2048         0.435885   
    175. A(C  24,C  23,H  51)          119.2978         0.353760   
    176. A(C  33,C  23,H  51)          119.4670         0.357035   
    177. A(C  12,C  24,C  35)          122.5908         0.411786   
    178. A(C  23,C  24,C  35)          117.9031         0.432228   
    179. A(C  12,C  24,C  23)          119.4973         0.411239   
    180. A(C  17,C  25,H  63)          119.6475         0.352927   
    181. A(C  18,C  25,H  63)          120.2722         0.359276   
    182. A(C  17,C  25,C  18)          120.0764         0.438406   
    183. A(C  27,C  26,C  32)          117.8507         0.426520   
    184. A(C  32,C  26,N  75)          122.2401         0.419621   
    185. A(C  27,C  26,N  75)          119.9068         0.422584   
    186. A(C  26,C  27,C  34)          121.5547         0.435515   
    187. A(C  26,C  27,H  57)          117.8697         0.353125   
    188. A(C  34,C  27,H  57)          120.5756         0.357756   
    189. A(C  29,C  28,C  30)          120.1968         0.438983   
    190. A(C  29,C  28,H  61)          119.9050         0.356895   
    191. A(C  30,C  28,H  61)          119.8973         0.356250   
    192. A(C  28,C  29,C  31)          120.5786         0.437679   
    193. A(C  28,C  29,H  62)          120.1649         0.357109   
    194. A(C  31,C  29,H  62)          119.2561         0.355468   
    195. A(C  28,C  30,C  36)          119.6331         0.438552   
    196. A(C  28,C  30,H  64)          120.1808         0.356343   
    197. A(C  36,C  30,H  64)          120.1854         0.356659   
    198. A(C  29,C  31,C  32)          120.5429         0.412541   
    199. A(C  29,C  31,C  37)          118.8798         0.434714   
    200. A(C  32,C  31,C  37)          120.5769         0.411766   
    201. A(C  26,C  32,C  31)          120.3272         0.406879   
    202. A(C  26,C  32,C  38)          119.8736         0.430230   
    203. A(C  31,C  32,C  38)          119.7718         0.413255   
    204. A(C  23,C  33,C  40)          120.1174         0.439409   
    205. A(C  23,C  33,H  65)          119.8070         0.356868   
    206. A(C  40,C  33,H  65)          120.0683         0.356284   
    207. A(C  27,C  34,C  39)          120.1342         0.439586   
    208. A(C  27,C  34,H  67)          119.9142         0.357412   
    209. A(C  39,C  34,H  67)          119.9510         0.355887   
    210. A(C  24,C  35,C  41)          120.8953         0.436465   
    211. A(C  24,C  35,H  66)          119.9407         0.354533   
    212. A(C  41,C  35,H  66)          119.1619         0.357356   
    213. A(C  30,C  36,C  37)          120.2590         0.439190   
    214. A(C  30,C  36,H  68)          119.6580         0.356438   
    215. A(C  37,C  36,H  68)          120.0790         0.356610   
    216. A(C  31,C  37,C  36)          120.4484         0.436640   
    217. A(C  31,C  37,H  69)          119.0319         0.355261   
    218. A(C  36,C  37,H  69)          120.2985         0.357388   
    219. A(C  39,C  38,H  70)          119.9536         0.356322   
    220. A(C  32,C  38,C  39)          121.2533         0.438088   
    221. A(C  32,C  38,H  70)          118.7909         0.355546   
    222. A(C  34,C  39,H  71)          120.4747         0.356099   
    223. A(C  38,C  39,H  71)          120.2031         0.356677   
    224. A(C  34,C  39,C  38)          119.3213         0.438348   
    225. A(C  33,C  40,H  72)          120.2992         0.356516   
    226. A(C  41,C  40,H  72)          120.2820         0.356353   
    227. A(C  33,C  40,C  41)          119.4161         0.438432   
    228. A(C  35,C  41,H  73)          119.4352         0.357372   
    229. A(C  40,C  41,H  73)          120.1047         0.356629   
    230. A(C  35,C  41,C  40)          120.4570         0.439188   
    231. A(Br  0,Cu 42,C  21)           51.6996         0.473674   
    232. A(N  74,Cu 42,N  75)           88.1897         0.600660   
    233. A(C  11,Cu 42,C  21)          155.0666         0.303918   
    234. A(Br  0,Cu 42,N  74)          140.4095         0.588235   
    235. A(C   4,Cu 42,N  74)           29.6352         0.360981   
    236. A(C  11,Cu 42,N  74)           60.1218         0.367923   
    237. A(C   4,Cu 42,C  22)          112.5188         0.239321   
    238. A(C  21,Cu 42,N  74)           94.9533         0.459685   
    239. A(C  22,Cu 42,N  74)           89.1060         0.354887   
    240. A(C  11,Cu 42,C  22)          138.2934         0.243158   
    241. A(C  21,Cu 42,C  22)           30.7530         0.293874   
    242. A(Br  0,Cu 42,N  75)          121.5601         0.619969   
    243. A(C   4,Cu 42,N  75)           59.7523         0.378270   
    244. A(C  11,Cu 42,N  75)           29.1664         0.385653   
    245. A(Br  0,Cu 42,C  22)           71.9185         0.364922   
    246. A(C  21,Cu 42,N  75)          170.4457         0.483248   
    247. A(C  22,Cu 42,N  75)          158.6456         0.371789   
    248. A(Br  0,Cu 42,C   4)          163.7470         0.371245   
    249. A(C   4,Cu 42,C  21)          124.3718         0.298569   
    250. A(Br  0,Cu 42,C  11)          149.5525         0.378450   
    251. A(C   4,Cu 42,C  11)           30.8601         0.246691   
    252. A(C   4,N  74,C   7)          121.3745         0.424170   
    253. A(C   4,N  74,Cu 42)          105.6792         0.488066   
    254. A(C   7,N  74,Cu 42)          127.8984         0.493052   
    255. A(C  11,N  75,C  26)          120.1330         0.422095   
    256. A(C  11,N  75,Cu 42)          108.4318         0.518855   
    257. A(C  26,N  75,Cu 42)          130.6989         0.510688   
    258. A(C  14,O  76,C  16)          118.0530         0.415881   
    259. D(C  12,C   5,C   2,C  10)      1.7241         0.031637   
    260. D(C  12,C   5,C   2,H  45)   -179.7293         0.031637   
    261. D(H  48,C   5,C   2,C  10)   -179.8973         0.031637   
    262. D(H  48,C   5,C   2,H  45)     -1.3507         0.031637   
    263. D(C  13,C   6,C   4,C  11)      3.7043         0.029180   
    264. D(C  13,C   6,C   4,Cu 42)   -161.2849         0.029180   
    265. D(C  13,C   6,C   4,N  74)    177.0863         0.029180   
    266. D(H  47,C   6,C   4,C  11)   -175.4760         0.029180   
    267. D(H  47,C   6,C   4,Cu 42)     19.5349         0.029180   
    268. D(H  47,C   6,C   4,N  74)     -2.0940         0.029180   
    269. D(N  74,C   7,C   1,C  10)   -177.6515         0.018688   
    270. D(N  74,C   7,C   1,C   9)      6.0749         0.018688   
    271. D(C  12,C   7,C   1,C  10)      3.0942         0.018688   
    272. D(C  12,C   7,C   1,C   9)   -173.1795         0.018688   
    273. D(C  13,C   8,C   3,C  11)      1.4601         0.028250   
    274. D(C  13,C   8,C   3,H  46)   -178.7734         0.028250   
    275. D(H  49,C   8,C   3,C  11)   -179.3056         0.028250   
    276. D(H  49,C   8,C   3,H  46)      0.4608         0.028250   
    277. D(H  43,C   9,C   1,C  10)   -177.8699         0.024124   
    278. D(H  43,C   9,C   1,C   7)     -1.5136         0.024124   
    279. D(C  17,C   9,C   1,C  10)      1.1665         0.024124   
    280. D(C  17,C   9,C   1,C   7)    177.5227         0.024124   
    281. D(C  18,C  10,C   2,H  45)     -1.8394         0.023618   
    282. D(C   2,C  10,C   1,C   7)      0.0487         0.021953   
    283. D(C   2,C  10,C   1,C   9)    176.3852         0.021953   
    284. D(C  18,C  10,C   1,C   9)     -2.8408         0.021953   
    285. D(C   1,C  10,C   2,C   5)     -2.4686         0.023618   
    286. D(C   1,C  10,C   2,H  45)    178.9617         0.023618   
    287. D(C  18,C  10,C   1,C   7)   -179.1773         0.021953   
    288. D(C  18,C  10,C   2,C   5)    176.7303         0.023618   
    289. D(C   4,C  11,C   3,C   8)      1.5481         0.028149   
    290. D(Cu 42,C  11,C   4,N  74)      9.5540         0.025185   
    291. D(N  75,C  11,C   3,C   8)   -177.9480         0.028149   
    292. D(C   3,C  11,C   4,Cu 42)    172.5567         0.025185   
    293. D(C   3,C  11,C   4,N  74)   -177.8893         0.025185   
    294. D(N  75,C  11,C   3,H  46)      2.2829         0.028149   
    295. D(Cu 42,C  11,C   3,H  46)    -25.0441         0.028149   
    296. D(C   4,C  11,C   3,H  46)   -178.2209         0.028149   
    297. D(N  75,C  11,C   4,Cu 42)     -7.9158         0.025185   
    298. D(Cu 42,C  11,C   4,C   6)   -176.6237         0.025185   
    299. D(C   3,C  11,C   4,C   6)     -4.0670         0.025185   
    300. D(N  75,C  11,C   4,C   6)    175.4605         0.025185   
    301. D(N  75,C  11,C   4,N  74)      1.6383         0.025185   
    302. D(Cu 42,C  11,C   3,C   8)    154.7249         0.028149   
    303. D(C   7,C  12,C   5,C   2)      1.5387         0.024989   
    304. D(C   5,C  12,C   7,C   1)     -3.8505         0.023105   
    305. D(C  24,C  12,C   5,C   2)   -177.4657         0.024989   
    306. D(C  24,C  12,C   5,H  48)      4.1360         0.024989   
    307. D(C  24,C  12,C   7,N  74)     -4.0736         0.023105   
    308. D(C   5,C  12,C   7,N  74)    176.9629         0.023105   
    309. D(C  24,C  12,C   7,C   1)    175.1129         0.023105   
    310. D(C   7,C  12,C   5,H  48)   -176.8596         0.024989   
    311. D(C   8,C  13,C   6,C   4)     -0.7198         0.027863   
    312. D(C   6,C  13,C   8,H  49)    178.8681         0.028718   
    313. D(H  55,C  13,C   6,H  47)     -1.6403         0.027863   
    314. D(H  55,C  13,C   8,C   3)    178.1953         0.028718   
    315. D(C   8,C  13,C   6,H  47)    178.4574         0.027863   
    316. D(C   6,C  13,C   8,C   3)     -1.9033         0.028718   
    317. D(H  55,C  13,C   6,C   4)    179.1825         0.027863   
    318. D(H  55,C  13,C   8,H  49)     -1.0333         0.028718   
    319. D(O  76,C  16,C  15,C  19)    179.6378         0.026038   
    320. D(C  20,C  16,C  15,C  19)      1.8674         0.026038   
    321. D(C  20,C  16,C  15,H  52)   -178.6873         0.026038   
    322. D(O  76,C  16,C  15,H  52)     -0.9168         0.026038   
    323. D(H  56,C  17,C   9,C   1)   -178.9995         0.030926   
    324. D(C  25,C  17,C   9,C   1)      1.1634         0.030926   
    325. D(C  25,C  17,C   9,H  43)   -179.8289         0.030926   
    326. D(H  56,C  17,C   9,H  43)      0.0081         0.030926   
    327. D(C  25,C  18,C  10,C   1)      2.2721         0.023267   
    328. D(C  25,C  18,C  10,C   2)   -176.9273         0.023267   
    329. D(H  59,C  18,C  10,C   1)   -178.0684         0.023267   
    330. D(H  59,C  18,C  10,C   2)      2.7321         0.023267   
    331. D(H  53,C  19,C  15,C  16)    179.9626         0.030176   
    332. D(H  53,C  19,C  15,H  52)      0.5281         0.030176   
    333. D(C  21,C  19,C  15,C  16)     -0.5292         0.030176   
    334. D(C  21,C  19,C  15,H  52)   -179.9637         0.030176   
    335. D(C  22,C  20,C  16,C  15)      0.8212         0.026477   
    336. D(C  22,C  20,C  16,O  76)   -176.7359         0.026477   
    337. D(H  54,C  20,C  16,C  15)    179.9939         0.026477   
    338. D(H  54,C  20,C  16,O  76)      2.4369         0.026477   
    339. D(Br  0,C  21,C  19,C  15)   -157.4492         0.029485   
    340. D(C  19,C  21,Br  0,Cu 42)   -130.7782         0.001976   
    341. D(C  22,C  21,Br  0,Cu 42)     75.2258         0.001976   
    342. D(Br  0,C  21,C  19,H  53)     22.0578         0.029485   
    343. D(C  22,C  21,C  19,C  15)     -3.5300         0.029485   
    344. D(Cu 42,C  21,C  19,C  15)    125.0680         0.029485   
    345. D(Cu 42,C  21,C  19,H  53)    -55.4250         0.029485   
    346. D(C  22,C  21,C  19,H  53)    175.9770         0.029485   
    347. D(C  21,C  22,C  20,C  16)     -4.7943         0.031127   
    348. D(C  21,C  22,C  20,H  54)    176.0076         0.031127   
    349. D(Cu 42,C  22,C  20,C  16)    -81.2127         0.031127   
    350. D(C  20,C  22,C  21,Br  0)    158.1785         0.032817   
    351. D(Cu 42,C  22,C  20,H  54)     99.5892         0.031127   
    352. D(H  60,C  22,C  20,C  16)    176.2568         0.031127   
    353. D(H  60,C  22,C  20,H  54)     -2.9414         0.031127   
    354. D(C  20,C  22,C  21,Cu 42)   -140.3938         0.032817   
    355. D(Cu 42,C  22,C  21,Br  0)    -61.4277         0.032817   
    356. D(Cu 42,C  22,C  21,C  19)    146.5917         0.032817   
    357. D(C  20,C  22,C  21,C  19)      6.1979         0.032817   
    358. D(H  60,C  22,C  21,Br  0)    -22.8910         0.032817   
    359. D(H  60,C  22,C  21,C  19)   -174.8716         0.032817   
    360. D(H  60,C  22,C  21,Cu 42)     38.5367         0.032817   
    361. D(C  23,C  24,C  12,C   5)     42.0841         0.014750   
    362. D(C  23,C  24,C  12,C   7)   -136.8913         0.014750   
    363. D(C  35,C  24,C  12,C   5)   -139.0210         0.014750   
    364. D(C  35,C  24,C  12,C   7)     42.0036         0.014750   
    365. D(C  12,C  24,C  23,C  33)    178.4145         0.025738   
    366. D(C  12,C  24,C  23,H  51)      0.4324         0.025738   
    367. D(C  35,C  24,C  23,C  33)     -0.5319         0.025738   
    368. D(C  35,C  24,C  23,H  51)   -178.5140         0.025738   
    369. D(H  63,C  25,C  18,C  10)    179.3326         0.031568   
    370. D(C  18,C  25,C  17,H  56)    178.3712         0.025234   
    371. D(H  63,C  25,C  17,C   9)    178.9219         0.025234   
    372. D(C  17,C  25,C  18,H  59)   -179.6030         0.031568   
    373. D(C  18,C  25,C  17,C   9)     -1.7906         0.025234   
    374. D(C  17,C  25,C  18,C  10)      0.0496         0.031568   
    375. D(H  63,C  25,C  17,H  56)     -0.9163         0.025234   
    376. D(H  63,C  25,C  18,H  59)     -0.3200         0.031568   
    377. D(H  57,C  27,C  26,C  32)    179.1511         0.025009   
    378. D(H  57,C  27,C  26,N  75)     -1.4028         0.025009   
    379. D(C  34,C  27,C  26,C  32)     -0.8173         0.025009   
    380. D(C  34,C  27,C  26,N  75)    178.6288         0.025009   
    381. D(C  31,C  29,C  28,C  30)      0.6594         0.028754   
    382. D(C  31,C  29,C  28,H  61)   -179.6715         0.028754   
    383. D(H  62,C  29,C  28,C  30)   -179.1234         0.028754   
    384. D(H  62,C  29,C  28,H  61)      0.5457         0.028754   
    385. D(C  36,C  30,C  28,C  29)     -0.7807         0.030551   
    386. D(C  36,C  30,C  28,H  61)    179.5501         0.030551   
    387. D(H  64,C  30,C  28,C  29)    179.5275         0.030551   
    388. D(H  64,C  30,C  28,H  61)     -0.1417         0.030551   
    389. D(C  32,C  31,C  29,C  28)    179.6185         0.027138   
    390. D(C  32,C  31,C  29,H  62)     -0.5968         0.027138   
    391. D(C  37,C  31,C  29,C  28)     -0.1475         0.027138   
    392. D(C  37,C  31,C  29,H  62)    179.6373         0.027138   
    393. D(C  38,C  32,C  26,C  27)     -0.1509         0.023022   
    394. D(C  26,C  32,C  31,C  29)    117.8360         0.014542   
    395. D(C  38,C  32,C  26,N  75)   -179.5832         0.023022   
    396. D(C  38,C  32,C  31,C  37)    119.5059         0.014542   
    397. D(C  38,C  32,C  31,C  29)    -60.2560         0.014542   
    398. D(C  31,C  32,C  26,C  27)   -178.2410         0.023022   
    399. D(C  31,C  32,C  26,N  75)      2.3267         0.023022   
    400. D(C  26,C  32,C  31,C  37)    -62.4021         0.014542   
    401. D(C  40,C  33,C  23,C  24)     -0.1623         0.028888   
    402. D(C  40,C  33,C  23,H  51)    177.8163         0.028888   
    403. D(H  65,C  33,C  23,C  24)   -179.1785         0.028888   
    404. D(H  65,C  33,C  23,H  51)     -1.1998         0.028888   
    405. D(H  67,C  34,C  27,C  26)   -179.3264         0.029442   
    406. D(C  39,C  34,C  27,H  57)   -178.9923         0.029442   
    407. D(H  67,C  34,C  27,H  57)      0.7061         0.029442   
    408. D(C  39,C  34,C  27,C  26)      0.9752         0.029442   
    409. D(C  41,C  35,C  24,C  12)   -178.0044         0.026149   
    410. D(C  41,C  35,C  24,C  23)      0.9072         0.026149   
    411. D(H  66,C  35,C  24,C  12)      1.4680         0.026149   
    412. D(H  66,C  35,C  24,C  23)   -179.6204         0.026149   
    413. D(C  37,C  36,C  30,C  28)      0.3961         0.030894   
    414. D(C  37,C  36,C  30,H  64)   -179.9121         0.030894   
    415. D(H  68,C  36,C  30,C  28)   -178.8698         0.030894   
    416. D(H  68,C  36,C  30,H  64)      0.8220         0.030894   
    417. D(C  36,C  37,C  31,C  29)     -0.2382         0.026534   
    418. D(C  36,C  37,C  31,C  32)    179.9959         0.026534   
    419. D(H  69,C  37,C  31,C  29)    174.3735         0.026534   
    420. D(H  69,C  37,C  31,C  32)     -5.3923         0.026534   
    421. D(C  31,C  37,C  36,C  30)      0.1137         0.028595   
    422. D(C  31,C  37,C  36,H  68)    179.3765         0.028595   
    423. D(H  69,C  37,C  36,C  30)   -174.4296         0.028595   
    424. D(H  69,C  37,C  36,H  68)      4.8333         0.028595   
    425. D(C  39,C  38,C  32,C  26)      0.9751         0.027706   
    426. D(C  39,C  38,C  32,C  31)    179.0759         0.027706   
    427. D(H  70,C  38,C  32,C  26)   -179.5587         0.027706   
    428. D(H  70,C  38,C  32,C  31)     -1.4579         0.027706   
    429. D(C  38,C  39,C  34,C  27)     -0.1422         0.027901   
    430. D(C  38,C  39,C  34,H  67)   -179.8405         0.027901   
    431. D(H  71,C  39,C  34,C  27)    179.5243         0.027901   
    432. D(H  71,C  39,C  34,H  67)     -0.1740         0.027901   
    433. D(C  34,C  39,C  38,C  32)     -0.8308         0.028475   
    434. D(C  34,C  39,C  38,H  70)    179.7091         0.028475   
    435. D(H  71,C  39,C  38,C  32)    179.5017         0.028475   
    436. D(H  71,C  39,C  38,H  70)      0.0417         0.028475   
    437. D(C  41,C  40,C  33,C  23)      0.4947         0.028299   
    438. D(C  41,C  40,C  33,H  65)    179.5082         0.028299   
    439. D(H  72,C  40,C  33,C  23)   -178.9174         0.028299   
    440. D(H  72,C  40,C  33,H  65)      0.0961         0.028299   
    441. D(C  40,C  41,C  35,C  24)     -0.5940         0.028882   
    442. D(C  40,C  41,C  35,H  66)    179.9295         0.028882   
    443. D(H  73,C  41,C  35,C  24)    178.7728         0.028882   
    444. D(H  73,C  41,C  35,H  66)     -0.7037         0.028882   
    445. D(C  35,C  41,C  40,C  33)     -0.1212         0.028137   
    446. D(C  35,C  41,C  40,H  72)    179.2910         0.028137   
    447. D(H  73,C  41,C  40,C  33)   -179.4838         0.028137   
    448. D(H  73,C  41,C  40,H  72)     -0.0716         0.028137   
    449. D(N  74,Cu 42,C  22,C  20)     -4.0976         0.001516   
    450. D(C  11,Cu 42,Br  0,C  21)    159.4951         0.002057   
    451. D(C  22,Cu 42,Br  0,C  21)    -26.6063         0.002057   
    452. D(C  11,Cu 42,C  22,C  21)   -141.2232         0.001516   
    453. D(N  75,Cu 42,Br  0,C  21)    171.7264         0.002057   
    454. D(Br  0,Cu 42,C   4,C   6)    -88.3600         0.001519   
    455. D(C   4,Cu 42,C  22,C  20)    -22.7425         0.001516   
    456. D(Br  0,Cu 42,C   4,N  74)    -62.5317         0.001519   
    457. D(C  11,Cu 42,C   4,C   6)    166.3003         0.001519   
    458. D(C  11,Cu 42,C   4,N  74)   -167.8714         0.001519   
    459. D(C  21,Cu 42,C   4,C   6)    -18.0373         0.001519   
    460. D(C  21,Cu 42,C   4,C  11)    175.6625         0.001519   
    461. D(C  21,Cu 42,C   4,N  74)      7.7911         0.001519   
    462. D(N  74,Cu 42,C  21,C  19)    -57.9998         0.001753   
    463. D(C  22,Cu 42,C   4,C  11)   -151.8528         0.001519   
    464. D(C  22,Cu 42,C   4,N  74)     40.2758         0.001519   
    465. D(C  11,Cu 42,C  21,C  22)     81.2688         0.001753   
    466. D(N  74,Cu 42,C   4,C  11)    167.8714         0.001519   
    467. D(N  75,Cu 42,C   4,C   6)    172.1687         0.001519   
    468. D(C   4,Cu 42,C  21,C  19)    -61.8577         0.001753   
    469. D(N  75,Cu 42,C   4,N  74)   -162.0030         0.001519   
    470. D(Br  0,Cu 42,C  11,C   3)     56.2459         0.001523   
    471. D(Br  0,Cu 42,C  11,C   4)   -147.8168         0.001523   
    472. D(Br  0,Cu 42,C  11,N  75)     21.7415         0.001523   
    473. D(C   4,Cu 42,C  11,C   3)   -155.9372         0.001523   
    474. D(C   4,Cu 42,C  11,N  75)    169.5583         0.001523   
    475. D(C  21,Cu 42,C  11,C   3)   -164.4530         0.001523   
    476. D(C  21,Cu 42,C  11,C   4)     -8.5158         0.001523   
    477. D(C  21,Cu 42,C  11,N  75)    161.0426         0.001523   
    478. D(C  22,Cu 42,C  11,C   3)   -115.0190         0.001523   
    479. D(C  22,Cu 42,C  11,C   4)     40.9183         0.001523   
    480. D(C  22,Cu 42,C  11,N  75)   -149.5234         0.001523   
    481. D(N  74,Cu 42,C  11,C   3)   -162.8189         0.001523   
    482. D(N  74,Cu 42,C  11,C   4)     -6.8816         0.001523   
    483. D(N  74,Cu 42,C  11,N  75)    162.6767         0.001523   
    484. D(N  75,Cu 42,C  11,C   3)     34.5044         0.001523   
    485. D(N  75,Cu 42,C  11,C   4)   -169.5583         0.001523   
    486. D(Br  0,Cu 42,C  21,C  19)     98.5204         0.001753   
    487. D(Br  0,Cu 42,C  21,C  22)   -123.6332         0.001753   
    488. D(N  75,Cu 42,C   4,C  11)      5.8684         0.001519   
    489. D(C   4,Cu 42,C  21,Br  0)   -160.3781         0.001753   
    490. D(C   4,Cu 42,C  21,C  22)     75.9887         0.001753   
    491. D(C  11,Cu 42,C  21,Br  0)   -155.0980         0.001753   
    492. D(N  74,Cu 42,C   4,C   6)    -25.8284         0.001519   
    493. D(C  11,Cu 42,C  21,C  19)    -56.5776         0.001753   
    494. D(C  22,Cu 42,C  21,Br  0)    123.6332         0.001753   
    495. D(C  22,Cu 42,C  21,C  19)   -137.8464         0.001753   
    496. D(C  22,Cu 42,C   4,C   6)     14.4475         0.001519   
    497. D(N  74,Cu 42,C  21,Br  0)   -156.5202         0.001753   
    498. D(N  74,Cu 42,C  21,C  22)     79.8466         0.001753   
    499. D(N  75,Cu 42,C  21,Br  0)    -47.6233         0.001753   
    500. D(N  75,Cu 42,C  21,C  19)     50.8971         0.001753   
    501. D(N  75,Cu 42,C  21,C  22)   -171.2565         0.001753   
    502. D(Br  0,Cu 42,C  22,C  20)    140.5735         0.001516   
    503. D(Br  0,Cu 42,C  22,C  21)     43.4203         0.001516   
    504. D(Br  0,Cu 42,C   4,C  11)    105.3397         0.001519   
    505. D(Br  0,Cu 42,C  22,H  60)   -102.5578         0.001516   
    506. D(C   4,Cu 42,C  22,C  21)   -119.8956         0.001516   
    507. D(C   4,Cu 42,C  22,H  60)     94.1263         0.001516   
    508. D(N  74,Cu 42,Br  0,C  21)     38.5244         0.002057   
    509. D(C  11,Cu 42,C  22,C  20)    -44.0700         0.001516   
    510. D(C  11,Cu 42,C  22,H  60)     72.7987         0.001516   
    511. D(C  21,Cu 42,C  22,C  20)     97.1532         0.001516   
    512. D(C   4,Cu 42,Br  0,C  21)     82.0301         0.002057   
    513. D(C  21,Cu 42,C  22,H  60)   -145.9781         0.001516   
    514. D(N  74,Cu 42,C  22,C  21)   -101.2508         0.001516   
    515. D(N  74,Cu 42,C  22,H  60)    112.7711         0.001516   
    516. D(N  75,Cu 42,C  22,C  20)    -86.8201         0.001516   
    517. D(N  75,Cu 42,C  22,C  21)    176.0268         0.001516   
    518. D(N  75,Cu 42,C  22,H  60)     30.0487         0.001516   
    519. D(C   7,N  74,C   4,C   6)     16.7439         0.030052   
    520. D(C   7,N  74,Cu 42,C  22)     11.3324         0.004256   
    521. D(C   7,N  74,C   4,Cu 42)   -156.6980         0.030052   
    522. D(Cu 42,N  74,C   4,C   6)    173.4419         0.030052   
    523. D(Cu 42,N  74,C   4,C  11)    -13.0721         0.030052   
    524. D(C   4,N  74,C   7,C   1)   -127.8424         0.031103   
    525. D(C   4,N  74,C   7,C  12)     51.3524         0.031103   
    526. D(Cu 42,N  74,C   7,C   1)     81.0161         0.031103   
    527. D(Cu 42,N  74,C   7,C  12)    -99.7892         0.031103   
    528. D(C   4,N  74,Cu 42,Br  0)    157.0668         0.004256   
    529. D(C   4,N  74,Cu 42,C  11)      7.1399         0.004256   
    530. D(C   4,N  74,Cu 42,C  21)   -173.5515         0.004256   
    531. D(C   4,N  74,Cu 42,C  22)   -143.3268         0.004256   
    532. D(C   4,N  74,Cu 42,N  75)     15.4880         0.004256   
    533. D(C   7,N  74,Cu 42,Br  0)    -48.2740         0.004256   
    534. D(C   7,N  74,Cu 42,C   4)    154.6592         0.004256   
    535. D(C   7,N  74,Cu 42,C  11)    161.7991         0.004256   
    536. D(C   7,N  74,C   4,C  11)   -169.7701         0.030052   
    537. D(C   7,N  74,Cu 42,C  21)    -18.8923         0.004256   
    538. D(C   7,N  74,Cu 42,N  75)    170.1472         0.004256   
    539. D(C  26,N  75,C  11,C   3)      2.1062         0.033912   
    540. D(C  26,N  75,Cu 42,C  22)   -102.0102         0.006293   
    541. D(C  26,N  75,C  11,Cu 42)    171.1867         0.033912   
    542. D(Cu 42,N  75,C  11,C   3)   -169.0804         0.033912   
    543. D(C  26,N  75,Cu 42,Br  0)     22.7922         0.006293   
    544. D(C  11,N  75,C  26,C  27)     82.5036         0.026014   
    545. D(C  11,N  75,C  26,C  32)    -98.0754         0.026014   
    546. D(Cu 42,N  75,C  26,C  27)   -108.5499         0.026014   
    547. D(Cu 42,N  75,C  26,C  32)     70.8711         0.026014   
    548. D(C  11,N  75,Cu 42,Br  0)   -167.2738         0.006293   
    549. D(C  11,N  75,Cu 42,C   4)     -6.1778         0.006293   
    550. D(C  11,N  75,Cu 42,C  21)   -124.4015         0.006293   
    551. D(C  11,N  75,Cu 42,C  22)     67.9238         0.006293   
    552. D(Cu 42,N  75,C  11,C   4)     11.4168         0.033912   
    553. D(C  11,N  75,Cu 42,N  74)    -14.9701         0.006293   
    554. D(C  26,N  75,Cu 42,C   4)   -176.1118         0.006293   
    555. D(C  26,N  75,Cu 42,C  11)   -169.9340         0.006293   
    556. D(C  26,N  75,C  11,C   4)   -177.3965         0.033912   
    557. D(C  26,N  75,Cu 42,C  21)     65.6645         0.006293   
    558. D(C  26,N  75,Cu 42,N  74)    175.0959         0.006293   
    559. D(C  16,O  76,C  14,H  44)     64.2030         0.022251   
    560. D(C  16,O  76,C  14,H  50)   -177.1948         0.022251   
    561. D(C  16,O  76,C  14,H  58)    -58.4576         0.022251   
    562. D(C  14,O  76,C  16,C  15)    176.0155         0.027715   
    563. D(C  14,O  76,C  16,C  20)     -6.3526         0.027715   
    564. C_2(Br  0)                     -0.4752         1.000000 C 
    565. C_1(Br  0)                      3.2224         1.000000 C 
    566. C_0(Br  0)                      0.3728         1.000000 C 
    567. C_0(C  21)                     -1.3229         1.000000 C 
    568. C_1(C  21)                      2.1711         1.000000 C 
    569. C_2(C  21)                     -0.0851         1.000000 C 
    570. C_2(C  37)                      1.8622         1.000000 C 
    571. C_1(C  37)                      1.1106         1.000000 C 
    572. C_0(C  37)                      2.5361         1.000000 C 
    573. C_2(Cu 42)                     -0.4617         1.000000 C 
    574. C_2(Cu 42)                     -0.4617         1.000000 C 
    575. C_1(Cu 42)                      0.8768         1.000000 C 
    576. C_0(Cu 42)                      0.5518         1.000000 C 
    577. C_1(Cu 42)                      0.8768         1.000000 C 
    578. C_0(Cu 42)                      0.5518         1.000000 C 
    -----------------------------------------------------------------

Number of atoms                         .... 77
Number of degrees of freedom            .... 578

         *************************************************************
         *                GEOMETRY OPTIMIZATION CYCLE   1            *
         *************************************************************
---------------------------------
CARTESIAN COORDINATES (ANGSTROEM)
---------------------------------
  Br     0.372760    3.222377   -0.475182
  C     -2.728441   -0.394822   -1.634304
  C     -4.536581   -1.405343   -0.358591
  C      2.831951   -2.295763   -1.366404
  C      0.489367   -1.713717   -1.151089
  C     -3.606499   -2.022918    0.435436
  C      0.171208   -3.044052   -1.403173
  C     -1.758530   -1.004437   -0.764780
  C      2.490546   -3.623108   -1.561720
  C     -2.312696    0.349913   -2.750404
  C     -4.116157   -0.596239   -1.430724
  C      1.852552   -1.320184   -1.175629
  C     -2.227839   -1.860206    0.253224
  C      1.159893   -3.995463   -1.600023
  C     -5.458485    0.695261    2.310278
  C     -3.681078    2.322008   -0.400721
  C     -3.890697    1.644421    0.800325
  C     -3.221414    0.897965   -3.621436
  C     -5.028765    0.007354   -2.319082
  C     -2.407086    2.582826   -0.850499
  C     -2.793029    1.263840    1.568350
  C     -1.322856    2.171099   -0.085118
  C     -1.511874    1.571625    1.149212
  C     -1.595182   -3.949498    1.422561
  C     -1.316106   -2.613803    1.126301
  C     -4.592212    0.739666   -3.391848
  C      3.433523    0.457225   -1.087948
  C      4.022869    0.701965   -2.334084
  C      3.734416   -0.778715    3.487446
  C      4.247357   -0.525051    2.229329
  C      2.613672   -0.097795    3.933111
  C      3.656194    0.422688    1.402830
  C      4.208186    0.698209    0.066205
  C     -0.745811   -4.700032    2.212455
  C      5.312234    1.179486   -2.441352
  C     -0.156648   -2.055019    1.662459
  C      2.019786    0.849635    3.118197
  C      2.536137    1.110627    1.862201
  C      5.510031    1.159532   -0.059539
  C      6.065857    1.410247   -1.301289
  C      0.408561   -4.133270    2.724450
  C      0.696793   -2.807616    2.446025
  Cu     0.551843    0.876782   -0.461692
  H     -1.249496    0.465931   -2.912726
  H     -5.079476    1.192196    3.210584
  H     -5.595414   -1.549193   -0.187780
  H      3.874092   -2.000161   -1.356114
  H     -0.869322   -3.336238   -1.459085
  H     -3.941249   -2.645732    1.258132
  H      3.270733   -4.362971   -1.696276
  H     -6.543702    0.621250    2.372467
  H     -2.476149   -4.412901    0.998706
  H     -4.538702    2.630070   -0.975440
  H     -2.254630    3.106444   -1.779968
  H     -2.914220    0.738931    2.502136
  H      0.882128   -5.026441   -1.781275
  H     -2.883801    1.455348   -4.485366
  H      3.434323    0.504087   -3.219069
  H     -5.027615   -0.307830    2.236760
  H     -6.088386   -0.124669   -2.138928
  H     -0.672996    1.324515    1.783626
  H      4.206548   -1.515210    4.124028
  H      5.113618   -1.066917    1.876535
  H     -5.304877    1.188981   -4.072594
  H      2.208000   -0.301978    4.914640
  H     -0.977453   -5.737661    2.416870
  H      0.088062   -1.022440    1.459431
  H      5.737979    1.369746   -3.418394
  H      1.154843    1.395147    3.473304
  H      2.130126    1.910181    1.262085
  H      6.091478    1.331801    0.838071
  H      7.080296    1.777441   -1.379288
  H      1.084445   -4.723090    3.328727
  H      1.598909   -2.356377    2.832994
  N     -0.449048   -0.716416   -1.005341
  N      2.126436    0.004649   -1.019218
  O     -5.193755    1.446991    1.153048

----------------------------
CARTESIAN COORDINATES (A.U.)
----------------------------
  NO LB      ZA    FRAG     MASS         X           Y           Z
   0 Br   35.0000    0    79.900    0.704414    6.089410   -0.897964
   1 C     6.0000    0    12.011   -5.156006   -0.746105   -3.088387
   2 C     6.0000    0    12.011   -8.572896   -2.655713   -0.677639
   3 C     6.0000    0    12.011    5.351612   -4.338363   -2.582129
   4 C     6.0000    0    12.011    0.924770   -3.238456   -2.175243
   5 C     6.0000    0    12.011   -6.815295   -3.822761    0.822855
   6 C     6.0000    0    12.011    0.323536   -5.752425   -2.651613
   7 C     6.0000    0    12.011   -3.323140   -1.898111   -1.445225
   8 C     6.0000    0    12.011    4.706450   -6.846682   -2.951223
   9 C     6.0000    0    12.011   -4.370362    0.661240   -5.197510
  10 C     6.0000    0    12.011   -7.778409   -1.126728   -2.703677
  11 C     6.0000    0    12.011    3.500816   -2.494786   -2.221617
  12 C     6.0000    0    12.011   -4.210006   -3.515280    0.478524
  13 C     6.0000    0    12.011    2.191880   -7.550331   -3.023605
  14 C     6.0000    0    12.011  -10.315042    1.313853    4.365793
  15 C     6.0000    0    12.011   -6.956229    4.387959   -0.757253
  16 C     6.0000    0    12.011   -7.352352    3.107505    1.512395
  17 C     6.0000    0    12.011   -6.087590    1.696908   -6.843522
  18 C     6.0000    0    12.011   -9.502989    0.013897   -4.382430
  19 C     6.0000    0    12.011   -4.548733    4.880834   -1.607210
  20 C     6.0000    0    12.011   -5.278060    2.388311    2.963752
  21 C     6.0000    0    12.011   -2.499836    4.102783   -0.160850
  22 C     6.0000    0    12.011   -2.857028    2.969941    2.171696
  23 C     6.0000    0    12.011   -3.014457   -7.463470    2.688251
  24 C     6.0000    0    12.011   -2.487080   -4.939372    2.128400
  25 C     6.0000    0    12.011   -8.678023    1.397766   -6.409664
  26 C     6.0000    0    12.011    6.488418    0.864030   -2.055924
  27 C     6.0000    0    12.011    7.602121    1.326522   -4.410780
  28 C     6.0000    0    12.011    7.057024   -1.471558    6.590318
  29 C     6.0000    0    12.011    8.026342   -0.992203    4.212821
  30 C     6.0000    0    12.011    4.939124   -0.184806    7.432503
  31 C     6.0000    0    12.011    6.909205    0.798765    2.650965
  32 C     6.0000    0    12.011    7.952319    1.319424    0.125109
  33 C     6.0000    0    12.011   -1.409379   -8.881773    4.180934
  34 C     6.0000    0    12.011   10.038667    2.228906   -4.613487
  35 C     6.0000    0    12.011   -0.296022   -3.883423    3.141592
  36 C     6.0000    0    12.011    3.816842    1.605577    5.892538
  37 C     6.0000    0    12.011    4.792604    2.098781    3.519050
  38 C     6.0000    0    12.011   10.412450    2.191198   -0.112512
  39 C     6.0000    0    12.011   11.462808    2.664981   -2.459080
  40 C     6.0000    0    12.011    0.772068   -7.810748    5.148464
  41 C     6.0000    0    12.011    1.316748   -5.305625    4.622317
  42 Cu   29.0000    0    63.550    1.042832    1.656878   -0.872471
  43 H     1.0000    0     1.008   -2.361205    0.880482   -5.504254
  44 H     1.0000    0     1.008   -9.598819    2.252924    6.067124
  45 H     1.0000    0     1.008  -10.573800   -2.927550   -0.354853
  46 H     1.0000    0     1.008    7.320973   -3.779757   -2.562684
  47 H     1.0000    0     1.008   -1.642781   -6.304576   -2.757271
  48 H     1.0000    0     1.008   -7.447881   -4.999709    2.377525
  49 H     1.0000    0     1.008    6.180790   -8.244820   -3.205497
  50 H     1.0000    0     1.008  -12.365805    1.173992    4.483313
  51 H     1.0000    0     1.008   -4.679243   -8.339174    1.887281
  52 H     1.0000    0     1.008   -8.576904    4.970112   -1.843314
  53 H     1.0000    0     1.008   -4.260633    5.870328   -3.363652
  54 H     1.0000    0     1.008   -5.507078    1.396377    4.728352
  55 H     1.0000    0     1.008    1.666980   -9.498597   -3.366122
  56 H     1.0000    0     1.008   -5.449594    2.750209   -8.476113
  57 H     1.0000    0     1.008    6.489930    0.952586   -6.083159
  58 H     1.0000    0     1.008   -9.500815   -0.581714    4.226864
  59 H     1.0000    0     1.008  -11.505382   -0.235590   -4.041988
  60 H     1.0000    0     1.008   -1.271778    2.502971    3.370565
  61 H     1.0000    0     1.008    7.949224   -2.863332    7.793283
  62 H     1.0000    0     1.008    9.663338   -2.016181    3.546137
  63 H     1.0000    0     1.008  -10.024765    2.246848   -7.696087
  64 H     1.0000    0     1.008    4.172515   -0.570656    9.287324
  65 H     1.0000    0     1.008   -1.847118  -10.842608    4.567222
  66 H     1.0000    0     1.008    0.166413   -1.932132    2.757925
  67 H     1.0000    0     1.008   10.843209    2.588445   -6.459828
  68 H     1.0000    0     1.008    2.182337    2.636446    6.563593
  69 H     1.0000    0     1.008    4.025355    3.609719    2.384995
  70 H     1.0000    0     1.008   11.511225    2.516739    1.583725
  71 H     1.0000    0     1.008   13.379820    3.358877   -2.606477
  72 H     1.0000    0     1.008    2.049304   -8.925347    6.290382
  73 H     1.0000    0     1.008    3.021500   -4.452907    5.353583
  74 N     7.0000    0    14.007   -0.848578   -1.353830   -1.899819
  75 N     7.0000    0    14.007    4.018382    0.008785   -1.926043
  76 O     8.0000    0    15.999   -9.814775    2.734417    2.178945

--------------------------------
INTERNAL COORDINATES (ANGSTROEM)
--------------------------------
 Br     0   0   0     0.000000000000     0.00000000     0.00000000
 C      1   0   0     4.903584409275     0.00000000     0.00000000
 C      2   1   0     2.432687117040   130.73261140     0.00000000
 C      2   1   3     5.882457504236    68.27231677   244.51406734
 C      4   2   1     2.423393878922     9.14186918   108.84770492
 C      3   2   1     1.370011052539    89.23159868   287.28087217
 C      5   4   2     1.390885582844    88.58424124   112.27953619
 C      2   1   3     1.438203665244    75.12283774   282.57163050
 C      4   2   1     1.384395341984    94.03146792   174.64189090
 C      2   1   3     1.404689764770    67.01711743   149.66481867
 C      3   2   1     1.407435537522    30.64979432   109.42185400
 C      4   2   1     1.395482671719    27.98137979     8.49464829
 C      6   3   2     1.400135637532   122.72872213     0.46577132
 C      9   4   2     1.382299812719   119.97205604   353.92176057
 C      3   2   1     3.519276330326   110.14821651    17.44925294
 C     11   3   2     3.125118472836   109.10753590   274.39611677
 C     16  11   3     1.394838973447    79.00344670     8.38389404
 C     10   2   1     1.372889705421   121.32201255   232.65334879
 C     11   3   2     1.409382065828   122.20355264   179.19892077
 C     16  11   3     1.376002141885   101.42971028   127.95796517
 C     17  16  11     1.392687810103   119.28497730    98.70705342
 C     20  16  11     1.389561762064   119.09212336   275.55212692
 C     21  17  16     1.382666410706   120.15218060     0.82122737
 C     13   6   3     2.476437958133    95.28203945   201.82250434
 C     24  13   6     1.396328949210    31.11217238   216.35172469
 C     19  11   3     1.370286932693   121.06736273   183.07267864
 C     12   4   2     2.380407531051    93.49199424   199.30927868
 C     27  12   4     1.400029037489   112.16792364    69.88497338
 C     27  12   4     4.748927724896    83.29488688   275.06900444
 C     29  27  12     1.382140470454    25.67647519   124.66557365
 C     29  27  12     1.385040234853    97.51548486   278.36321641
 C     30  29  27     1.389526358761   120.57863210    31.20823178
 C     27  12   4     1.410760503854   121.49194328   282.61881562
 C     24  13   6     1.381544393797   152.29612055   213.43380168
 C     28  27  12     1.379128287176   121.55467796   210.61564717
 C     25  24  13     1.394291150866   117.90307273   181.05358218
 C     31  29  27     1.383621701655   119.63313011   346.38470339
 C     37  31  29     1.382845302729   120.25896074     0.39607593
 C     33  27  12     1.386878101309   119.87356004   145.35154194
 C     39  33  27     1.383381225838   121.25328100     0.97511424
 C     34  24  13     1.384172228826   120.11735417     1.59995537
 C     36  25  24     1.381571373924   120.89528430     0.90717096
 Cu    22  20  16     2.309017283297   135.21556664   125.06804200
 H     10   2   1     1.081759145100   117.83832936    53.61696187
 H     15   3   2     1.095966746732   143.41937874   301.36472388
 H      3   2   1     1.082125936345   149.91298274   107.61499399
 H      4   2   1     1.083302492559   145.24397178   343.50661246
 H      7   5   4     1.082220629650   119.17843592   182.47364673
 H      6   3   2     1.084796547520   119.26553413   178.84440542
 H      9   4   2     1.083602478252   119.64374050   173.15605085
 H     15   3   2     1.089514128835   105.28766267   141.39345481
 H     24  13   6     1.081895677283    88.18635183    36.72903926
 H     16  11   3     1.077368576756    88.87515807   248.94678106
 H     20  16  11     1.077650807925   120.33190177    96.04393815
 H     21  17  16     1.078041284255   121.47528104   179.99393833
 H     14   9   4     1.083014921048   120.52799497   178.19525015
 H     18  10   2     1.082142962532   120.37294897   181.00048241
 H     28  27  12     1.081083043630   117.86966501    30.58405014
 H     15   3   2     1.094187098948    45.46862540   243.89746313
 H     19  11   3     1.082904520208   118.45887068     2.73213940
 H     23  21  17     1.080398433163   119.37543353   176.25678572
 H     29  27  12     1.081928903936   140.50577740    80.27625245
 H     30  29  27     1.080967385499   120.16489416   211.42544360
 H     26  19  11     1.083139182177   120.27220251   179.33262468
 H     31  29  27     1.081508042926   120.18077419   166.69288992
 H     34  24  13     1.082643731811   119.80697266   182.58383614
 H     36  25  24     1.080427111898   119.94070743   180.37960978
 H     35  28  27     1.082621236809   119.91418035   180.67362535
 H     37  31  29     1.082502063204   119.65797405   181.13015170
 H     38  37  31     1.079013783273   120.29848910   185.57043329
 H     39  33  27     1.083264018728   118.79091935   180.44134041
 H     40  39  33     1.081666197289   120.20312791   179.50174880
 H     41  34  24     1.081599513029   120.29922005   181.08259389
 H     42  36  25     1.080358699478   119.43517043   178.77281742
 N      8   2   1     1.362192644043   116.86576613   314.67411798
 N     12   4   2     1.361858775448   123.68632388   198.24768429
 O     17  16  11     1.364313846222   115.87741932   276.47750095

---------------------------
INTERNAL COORDINATES (A.U.)
---------------------------
 Br     0   0   0     0.000000000000     0.00000000     0.00000000
 C      1   0   0     9.266431608096     0.00000000     0.00000000
 C      2   1   0     4.597112420723   130.73261140     0.00000000
 C      2   1   3    11.116233677436    68.27231677   244.51406734
 C      4   2   1     4.579550745784     9.14186918   108.84770492
 C      3   2   1     2.588945689743    89.23159868   287.28087217
 C      5   4   2     2.628392835194    88.58424124   112.27953619
 C      2   1   3     2.717811052113    75.12283774   282.57163050
 C      4   2   1     2.616128057425    94.03146792   174.64189090
 C      2   1   3     2.654478958538    67.01711743   149.66481867
 C      3   2   1     2.659667717066    30.64979432   109.42185400
 C      4   2   1     2.637080074181    27.98137979     8.49464829
 C      6   3   2     2.645872905279   122.72872213     0.46577132
 C      9   4   2     2.612168081010   119.97205604   353.92176057
 C      3   2   1     6.650468453908   110.14821651    17.44925294
 C     11   3   2     5.905618049718   109.10753590   274.39611677
 C     16  11   3     2.635863660734    79.00344670     8.38389404
 C     10   2   1     2.594385555326   121.32201255   232.65334879
 C     11   3   2     2.663346122475   122.20355264   179.19892077
 C     16  11   3     2.600267207852   101.42971028   127.95796517
 C     17  16  11     2.631798551146   119.28497730    98.70705342
 C     20  16  11     2.625891176470   119.09212336   275.55212692
 C     21  17  16     2.612860850806   120.15218060     0.82122737
 C     13   6   3     4.679789528519    95.28203945   201.82250434
 C     24  13   6     2.638679306872    31.11217238   216.35172469
 C     19  11   3     2.589467027681   121.06736273   183.07267864
 C     12   4   2     4.498318320810    93.49199424   199.30927868
 C     27  12   4     2.645671460391   112.16792364    69.88497338
 C     27  12   4     8.974172829839    83.29488688   275.06900444
 C     29  27  12     2.611866967767    25.67647519   124.66557365
 C     29  27  12     2.617346728334    97.51548486   278.36321641
 C     30  29  27     2.625824273923   120.57863210    31.20823178
 C     27  12   4     2.665950992837   121.49194328   282.61881562
 C     24  13   6     2.610740546131   152.29612055   213.43380168
 C     28  27  12     2.606174766307   121.55467796   210.61564717
 C     25  24  13     2.634828426087   117.90307273   181.05358218
 C     31  29  27     2.614666089079   119.63313011   346.38470339
 C     37  31  29     2.613198907738   120.25896074     0.39607593
 C     33  27  12     2.620819792606   119.87356004   145.35154194
 C     39  33  27     2.614211655642   121.25328100     0.97511424
 C     34  24  13     2.615706434660   120.11735417     1.59995537
 C     36  25  24     2.610791531182   120.89528430     0.90717096
 Cu    22  20  16     4.363410303923   135.21556664   125.06804200
 H     10   2   1     2.044228527104   117.83832936    53.61696187
 H     15   3   2     2.071077003208   143.41937874   301.36472388
 H      3   2   1     2.044921662105   149.91298274   107.61499399
 H      4   2   1     2.047145031131   145.24397178   343.50661246
 H      7   5   4     2.045100606518   119.17843592   182.47364673
 H      6   3   2     2.049968385837   119.26553413   178.84440542
 H      9   4   2     2.047711921935   119.64374050   173.15605085
 H     15   3   2     2.058883322536   105.28766267   141.39345481
 H     24  13   6     2.044486535538    88.18635183    36.72903926
 H     16  11   3     2.035931555361    88.87515807   248.94678106
 H     20  16  11     2.036464894977   120.33190177    96.04393815
 H     21  17  16     2.037202788303   121.47528104   179.99393833
 H     14   9   4     2.046601599731   120.52799497   178.19525015
 H     18  10   2     2.044953836936   120.37294897   181.00048241
 H     28  27  12     2.042950880487   117.86966501    30.58405014
 H     15   3   2     2.067713956282    45.46862540   243.89746313
 H     19  11   3     2.046392972378   118.45887068     2.73213940
 H     23  21  17     2.041657154195   119.37543353   176.25678572
 H     29  27  12     2.044549324813   140.50577740    80.27625245
 H     30  29  27     2.042732318294   120.16489416   211.42544360
 H     26  19  11     2.046836419233   120.27220251   179.33262468
 H     31  29  27     2.043754012764   120.18077419   166.69288992
 H     34  24  13     2.045900153730   119.80697266   182.58383614
 H     36  25  24     2.041711349151   119.94070743   180.37960978
 H     35  28  27     2.045857644335   119.91418035   180.67362535
 H     37  31  29     2.045632438861   119.65797405   181.13015170
 H     38  37  31     2.039040545112   120.29848910   185.57043329
 H     39  33  27     2.047072326126   118.79091935   180.44134041
 H     40  39  33     2.044052881197   120.20312791   179.50174880
 H     41  34  24     2.043926866208   120.29922005   181.08259389
 H     42  36  25     2.041582068413   119.43517043   178.77281742
 N      8   2   1     2.574171038884   116.86576613   314.67411798
 N     12   4   2     2.573540118675   123.68632388   198.24768429
 O     17  16  11     2.578179530076   115.87741932   276.47750095

---------------------
BASIS SET INFORMATION
---------------------
There are 7 groups of distinct atoms

 Group   1 Type Br  : 17s13p8d1f contracted to 6s5p4d1f pattern {842111/64111/5111/1}
 Group   2 Type C   : 7s4p1d contracted to 3s2p1d pattern {511/31/1}
 Group   3 Type C   : 11s6p2d1f contracted to 5s3p2d1f pattern {62111/411/11/1}
 Group   4 Type Cu  : 17s11p7d1f contracted to 6s4p4d1f pattern {842111/6311/4111/1}
 Group   5 Type H   : 3s contracted to 1s pattern {3}
 Group   6 Type N   : 11s6p2d1f contracted to 5s3p2d1f pattern {62111/411/11/1}
 Group   7 Type O   : 7s4p1d contracted to 3s2p1d pattern {511/31/1}

Atom   0Br   basis set group =>   1
Atom   1C    basis set group =>   2
Atom   2C    basis set group =>   2
Atom   3C    basis set group =>   2
Atom   4C    basis set group =>   2
Atom   5C    basis set group =>   2
Atom   6C    basis set group =>   2
Atom   7C    basis set group =>   2
Atom   8C    basis set group =>   2
Atom   9C    basis set group =>   2
Atom  10C    basis set group =>   2
Atom  11C    basis set group =>   2
Atom  12C    basis set group =>   2
Atom  13C    basis set group =>   2
Atom  14C    basis set group =>   2
Atom  15C    basis set group =>   2
Atom  16C    basis set group =>   2
Atom  17C    basis set group =>   2
Atom  18C    basis set group =>   2
Atom  19C    basis set group =>   2
Atom  20C    basis set group =>   2
Atom  21C    basis set group =>   3
Atom  22C    basis set group =>   2
Atom  23C    basis set group =>   2
Atom  24C    basis set group =>   2
Atom  25C    basis set group =>   2
Atom  26C    basis set group =>   2
Atom  27C    basis set group =>   2
Atom  28C    basis set group =>   2
Atom  29C    basis set group =>   2
Atom  30C    basis set group =>   2
Atom  31C    basis set group =>   2
Atom  32C    basis set group =>   2
[...]
177:   1470.34   0.005042   25.48  0.001070  ( 0.028125  0.015741 -0.005595)
178:   1475.24   0.010595   53.54  0.002241  (-0.041851 -0.021261  0.006136)
179:   1491.26   0.070341  355.48  0.014720  (-0.100421 -0.067900  0.005003)
180:   1492.15   0.004770   24.11  0.000998  ( 0.000171  0.030661  0.007582)
181:   1496.35   0.046247  233.72  0.009645  ( 0.089935  0.018342 -0.034932)
182:   1501.28   0.004204   21.24  0.000874  (-0.029163 -0.001871 -0.004454)
183:   1509.24   0.090931  459.53  0.018802  ( 0.032657 -0.120907 -0.055828)
184:   1517.79   0.016819   85.00  0.003458  ( 0.000349 -0.056647  0.015782)
185:   1520.77   0.018320   92.58  0.003759  ( 0.036974  0.001616  0.048882)
186:   1538.28   0.008072   40.79  0.001637  (-0.035647 -0.018661  0.004302)
187:   1572.78   0.039594  200.09  0.007856  ( 0.073194  0.049818 -0.004110)
188:   1574.36   0.007447   37.63  0.001476  (-0.014693 -0.005338 -0.035095)
189:   1580.26   0.003114   15.74  0.000615  ( 0.015802 -0.001782  0.019029)
190:   1586.35   0.001240    6.27  0.000244  (-0.013400 -0.008028 -0.000025)
191:   1589.14   0.032234  162.90  0.006330  ( 0.076415  0.022099 -0.001517)
192:   1605.65   0.000538    2.72  0.000105  (-0.005317  0.002535  0.008361)
193:   1610.54   0.002971   15.02  0.000576  (-0.017969 -0.015900 -0.000107)
194:   1617.13   0.022902  115.74  0.004419  (-0.058229 -0.006926  0.031320)
195:   1619.02   0.012836   64.87  0.002474  ( 0.049010 -0.000048  0.008498)
196:   1621.28   0.015841   80.05  0.003049  ( 0.047263  0.017884 -0.022257)
197:   1628.97   0.002352   11.89  0.000451  ( 0.001423 -0.004580  0.020679)
198:   1636.66   0.009426   47.63  0.001797  ( 0.027978 -0.017736  0.026456)
199:   1645.50   0.001959    9.90  0.000372  ( 0.018381 -0.000144  0.005805)
200:   2986.23   0.007042   35.59  0.000736  ( 0.018717  0.005669 -0.018801)
201:   3066.67   0.001651    8.34  0.000168  ( 0.005650 -0.010583 -0.004910)
202:   3108.36   0.000180    0.91  0.000018  (-0.002572  0.003095  0.001360)
203:   3114.70   0.001830    9.25  0.000183  ( 0.012880  0.003082 -0.002821)
204:   3114.88   0.001239    6.26  0.000124  (-0.010234 -0.004257 -0.001112)
205:   3119.09   0.002469   12.48  0.000247  ( 0.012634  0.009318  0.000745)
206:   3120.54   0.001544    7.80  0.000154  ( 0.003688 -0.010933 -0.004616)
207:   3121.58   0.001124    5.68  0.000112  (-0.004719 -0.006102  0.007272)
208:   3121.86   0.001792    9.06  0.000179  ( 0.000451  0.004909  0.012445)
209:   3122.12   0.001154    5.83  0.000115  (-0.003539  0.006058 -0.008130)
210:   3124.00   0.000125    0.63  0.000012  (-0.003202  0.001300 -0.000713)
211:   3126.28   0.000224    1.13  0.000022  ( 0.002946  0.002228 -0.002946)
212:   3126.96   0.005427   27.42  0.000542  (-0.021902 -0.007793 -0.001078)
213:   3128.77   0.002269   11.47  0.000226  ( 0.014399  0.004255 -0.000932)
214:   3129.07   0.000254    1.28  0.000025  ( 0.002312  0.000971  0.004364)
215:   3130.93   0.000254    1.29  0.000025  ( 0.001555  0.000582 -0.004755)
216:   3132.27   0.003023   15.28  0.000301  ( 0.005257  0.003991  0.016050)
217:   3135.14   0.001582    8.00  0.000157  (-0.011098 -0.002813 -0.005140)
218:   3135.72   0.005767   29.15  0.000574  ( 0.009448 -0.020163 -0.008840)
219:   3136.85   0.002822   14.26  0.000281  (-0.015709  0.001672 -0.005585)
220:   3137.17   0.003752   18.96  0.000373  ( 0.019017  0.001313 -0.003146)
221:   3137.94   0.006472   32.71  0.000644  (-0.022883 -0.007079  0.008358)
222:   3139.15   0.000167    0.84  0.000017  (-0.002394 -0.003232  0.000627)
223:   3140.33   0.003890   19.66  0.000387  (-0.000416 -0.019611  0.001364)
224:   3144.08   0.004189   21.17  0.000416  (-0.012505 -0.010345  0.012344)
225:   3144.40   0.006587   33.29  0.000654  (-0.008182  0.008964 -0.022504)
226:   3145.04   0.000393    1.99  0.000039  ( 0.003221  0.004134  0.003396)
227:   3145.62   0.005371   27.14  0.000533  (-0.008596  0.005779 -0.020629)
228:   3157.92   0.000052    0.26  0.000005  (-0.002235 -0.000246  0.000337)
229:   3166.31   0.000310    1.57  0.000031  (-0.002843 -0.001140  0.004605)
230:   3167.10   0.001191    6.02  0.000117  ( 0.010183 -0.002564 -0.002668)

* The epsilon (eps) is given for a Dirac delta lineshape.
** The dipole moment derivative (T) already includes vibrational overlap.

The first frequency considered to be a vibration is 7
The total number of vibrations considered is 224


--------------------------
THERMOCHEMISTRY AT 298.15K
--------------------------

Temperature         ... 298.15 K
Pressure            ... 1.00 atm
Total Mass          ... 711.16 AMU

Throughout the following assumptions are being made:
  (1) The electronic state is orbitally nondegenerate
  (2) There are no thermally accessible electronically excited states
  (3) Hindered rotations indicated by low frequency modes are not
      treated as such but are treated as vibrations and this may
      cause some error
  (4) All equations used are the standard statistical mechanics
      equations for an ideal gas
  (5) All vibrations are strictly harmonic

freq.       5.74  E(vib)   ...       0.58 
freq.      16.17  E(vib)   ...       0.57 
freq.      19.07  E(vib)   ...       0.57 
freq.      28.38  E(vib)   ...       0.55 
freq.      28.82  E(vib)   ...       0.55 
freq.      43.14  E(vib)   ...       0.53 
freq.      43.87  E(vib)   ...       0.53 
freq.      50.50  E(vib)   ...       0.52 
freq.      57.68  E(vib)   ...       0.51 
freq.      59.53  E(vib)   ...       0.51 
freq.      66.19  E(vib)   ...       0.50 
freq.      73.57  E(vib)   ...       0.49 
freq.      82.62  E(vib)   ...       0.48 
freq.      83.19  E(vib)   ...       0.48 
freq.      98.63  E(vib)   ...       0.46 
freq.     104.39  E(vib)   ...       0.46 
freq.     111.14  E(vib)   ...       0.45 
freq.     114.06  E(vib)   ...       0.44 
freq.     121.22  E(vib)   ...       0.44 
freq.     133.45  E(vib)   ...       0.42 
freq.     144.79  E(vib)   ...       0.41 
freq.     147.66  E(vib)   ...       0.41 
freq.     155.06  E(vib)   ...       0.40 
freq.     171.61  E(vib)   ...       0.38 
freq.     184.25  E(vib)   ...       0.37 
freq.     186.60  E(vib)   ...       0.37 
freq.     195.42  E(vib)   ...       0.36 
freq.     210.20  E(vib)   ...       0.34 
freq.     225.05  E(vib)   ...       0.33 
freq.     239.99  E(vib)   ...       0.31 
freq.     250.56  E(vib)   ...       0.30 
freq.     260.02  E(vib)   ...       0.30 
freq.     264.64  E(vib)   ...       0.29 
freq.     280.49  E(vib)   ...       0.28 
freq.     295.52  E(vib)   ...       0.27 
freq.     301.94  E(vib)   ...       0.26 
freq.     303.13  E(vib)   ...       0.26 
freq.     326.97  E(vib)   ...       0.24 
freq.     342.22  E(vib)   ...       0.23 
freq.     351.34  E(vib)   ...       0.23 
freq.     385.76  E(vib)   ...       0.20 
freq.     404.45  E(vib)   ...       0.19 
freq.     410.60  E(vib)   ...       0.19 
freq.     418.48  E(vib)   ...       0.18 
freq.     423.44  E(vib)   ...       0.18 
freq.     426.59  E(vib)   ...       0.18 
freq.     440.23  E(vib)   ...       0.17 
freq.     459.37  E(vib)   ...       0.16 
freq.     464.64  E(vib)   ...       0.16 
freq.     473.23  E(vib)   ...       0.15 
freq.     491.95  E(vib)   ...       0.14 
freq.     505.08  E(vib)   ...       0.14 
freq.     515.65  E(vib)   ...       0.13 
freq.     529.92  E(vib)   ...       0.13 
freq.     533.82  E(vib)   ...       0.13 
freq.     550.84  E(vib)   ...       0.12 
freq.     554.92  E(vib)   ...       0.12 
freq.     562.88  E(vib)   ...       0.11 
freq.     568.52  E(vib)   ...       0.11 
freq.     570.05  E(vib)   ...       0.11 
freq.     596.83  E(vib)   ...       0.10 
freq.     601.55  E(vib)   ...       0.10 
freq.     604.72  E(vib)   ...       0.10 
freq.     621.87  E(vib)   ...       0.09 
freq.     629.09  E(vib)   ...       0.09 
freq.     629.49  E(vib)   ...       0.09 
freq.     633.90  E(vib)   ...       0.09 
freq.     647.70  E(vib)   ...       0.09 
freq.     659.42  E(vib)   ...       0.08 
freq.     679.75  E(vib)   ...       0.08 
freq.     693.80  E(vib)   ...       0.07 
freq.     695.32  E(vib)   ...       0.07 
freq.     697.28  E(vib)   ...       0.07 
freq.     703.54  E(vib)   ...       0.07 
freq.     710.88  E(vib)   ...       0.07 
freq.     728.90  E(vib)   ...       0.06 
freq.     731.58  E(vib)   ...       0.06 
freq.     734.01  E(vib)   ...       0.06 
freq.     736.26  E(vib)   ...       0.06 
freq.     758.15  E(vib)   ...       0.06 
freq.     765.27  E(vib)   ...       0.06 
freq.     770.54  E(vib)   ...       0.05 
freq.     775.11  E(vib)   ...       0.05 
freq.     778.77  E(vib)   ...       0.05 
freq.     792.57  E(vib)   ...       0.05 
freq.     801.88  E(vib)   ...       0.05 
freq.     804.09  E(vib)   ...       0.05 
freq.     809.93  E(vib)   ...       0.05 
freq.     813.16  E(vib)   ...       0.05 
freq.     822.57  E(vib)   ...       0.05 
freq.     830.26  E(vib)   ...       0.04 
freq.     836.75  E(vib)   ...       0.04 
freq.     843.93  E(vib)   ...       0.04 
freq.     864.15  E(vib)   ...       0.04 
freq.     870.96  E(vib)   ...       0.04 
freq.     873.92  E(vib)   ...       0.04 
freq.     883.97  E(vib)   ...       0.04 
freq.     898.99  E(vib)   ...       0.03 
freq.     904.43  E(vib)   ...       0.03 
freq.     910.06  E(vib)   ...       0.03 
freq.     911.45  E(vib)   ...       0.03 
freq.     912.40  E(vib)   ...       0.03 
freq.     919.07  E(vib)   ...       0.03 
freq.     935.63  E(vib)   ...       0.03 
freq.     936.45  E(vib)   ...       0.03 
freq.     944.20  E(vib)   ...       0.03 
freq.     952.70  E(vib)   ...       0.03 
freq.     962.47  E(vib)   ...       0.03 
freq.     964.39  E(vib)   ...       0.03 
freq.     968.39  E(vib)   ...       0.03 
freq.     976.05  E(vib)   ...       0.03 
freq.     981.63  E(vib)   ...       0.02 
freq.     982.87  E(vib)   ...       0.02 
freq.     986.08  E(vib)   ...       0.02 
freq.    1006.74  E(vib)   ...       0.02 
freq.    1010.09  E(vib)   ...       0.02 
freq.    1019.06  E(vib)   ...       0.02 
freq.    1023.29  E(vib)   ...       0.02 
freq.    1031.61  E(vib)   ...       0.02 
freq.    1038.67  E(vib)   ...       0.02 
freq.    1044.77  E(vib)   ...       0.02 
freq.    1047.11  E(vib)   ...       0.02 
freq.    1054.77  E(vib)   ...       0.02 
freq.    1056.66  E(vib)   ...       0.02 
freq.    1068.31  E(vib)   ...       0.02 
freq.    1086.34  E(vib)   ...       0.02 
freq.    1087.81  E(vib)   ...       0.02 
freq.    1105.01  E(vib)   ...       0.02 
freq.    1116.85  E(vib)   ...       0.01 
freq.    1118.22  E(vib)   ...       0.01 
freq.    1120.69  E(vib)   ...       0.01 
freq.    1144.65  E(vib)   ...       0.01 
freq.    1149.19  E(vib)   ...       0.01 
freq.    1153.75  E(vib)   ...       0.01 
freq.    1156.08  E(vib)   ...       0.01 
freq.    1159.38  E(vib)   ...       0.01 
freq.    1160.66  E(vib)   ...       0.01 
freq.    1168.26  E(vib)   ...       0.01 
freq.    1178.47  E(vib)   ...       0.01 
freq.    1181.80  E(vib)   ...       0.01 
freq.    1183.25  E(vib)   ...       0.01 
freq.    1201.68  E(vib)   ...       0.01 
freq.    1207.84  E(vib)   ...       0.01 
freq.    1224.33  E(vib)   ...       0.01 
freq.    1239.88  E(vib)   ...       0.01 
freq.    1246.93  E(vib)   ...       0.01 
freq.    1256.02  E(vib)   ...       0.01 
freq.    1281.98  E(vib)   ...       0.01 
freq.    1292.26  E(vib)   ...       0.01 
freq.    1293.33  E(vib)   ...       0.01 
freq.    1298.86  E(vib)   ...       0.01 
freq.    1305.90  E(vib)   ...       0.01 
freq.    1308.07  E(vib)   ...       0.01 
freq.    1318.82  E(vib)   ...       0.01 
freq.    1333.19  E(vib)   ...       0.01 
freq.    1346.33  E(vib)   ...       0.01 
freq.    1348.71  E(vib)   ...       0.01 
freq.    1349.49  E(vib)   ...       0.01 
freq.    1359.95  E(vib)   ...       0.01 
freq.    1362.62  E(vib)   ...       0.01 
freq.    1372.43  E(vib)   ...       0.01 
freq.    1380.60  E(vib)   ...       0.01 
freq.    1396.60  E(vib)   ...       0.00 
freq.    1416.23  E(vib)   ...       0.00 
freq.    1430.22  E(vib)   ...       0.00 
freq.    1440.84  E(vib)   ...       0.00 
freq.    1447.99  E(vib)   ...       0.00 
freq.    1457.58  E(vib)   ...       0.00 
freq.    1465.61  E(vib)   ...       0.00 
freq.    1467.58  E(vib)   ...       0.00 
freq.    1470.34  E(vib)   ...       0.00 
freq.    1475.24  E(vib)   ...       0.00 
freq.    1491.26  E(vib)   ...       0.00 
freq.    1492.15  E(vib)   ...       0.00 
freq.    1496.35  E(vib)   ...       0.00 
freq.    1501.28  E(vib)   ...       0.00 
freq.    1509.24  E(vib)   ...       0.00 
freq.    1517.79  E(vib)   ...       0.00 
freq.    1520.77  E(vib)   ...       0.00 
freq.    1538.28  E(vib)   ...       0.00 
freq.    1572.78  E(vib)   ...       0.00 
freq.    1574.36  E(vib)   ...       0.00 
freq.    1580.26  E(vib)   ...       0.00 
freq.    1586.35  E(vib)   ...       0.00 
freq.    1589.14  E(vib)   ...       0.00 
freq.    1605.65  E(vib)   ...       0.00 
freq.    1610.54  E(vib)   ...       0.00 
freq.    1617.13  E(vib)   ...       0.00 
freq.    1619.02  E(vib)   ...       0.00 
freq.    1621.28  E(vib)   ...       0.00 
freq.    1628.97  E(vib)   ...       0.00 
freq.    1636.66  E(vib)   ...       0.00 
freq.    1645.50  E(vib)   ...       0.00 
freq.    2986.23  E(vib)   ...       0.00 
freq.    3066.67  E(vib)   ...       0.00 
freq.    3108.36  E(vib)   ...       0.00 
freq.    3114.70  E(vib)   ...       0.00 
freq.    3114.88  E(vib)   ...       0.00 
freq.    3119.09  E(vib)   ...       0.00 
freq.    3120.54  E(vib)   ...       0.00 
freq.    3121.58  E(vib)   ...       0.00 
freq.    3121.86  E(vib)   ...       0.00 
freq.    3122.12  E(vib)   ...       0.00 
freq.    3124.00  E(vib)   ...       0.00 
freq.    3126.28  E(vib)   ...       0.00 
freq.    3126.96  E(vib)   ...       0.00 
freq.    3128.77  E(vib)   ...       0.00 
freq.    3129.07  E(vib)   ...       0.00 
freq.    3130.93  E(vib)   ...       0.00 
freq.    3132.27  E(vib)   ...       0.00 
freq.    3135.14  E(vib)   ...       0.00 
freq.    3135.72  E(vib)   ...       0.00 
freq.    3136.85  E(vib)   ...       0.00 
freq.    3137.17  E(vib)   ...       0.00 
freq.    3137.94  E(vib)   ...       0.00 
freq.    3139.15  E(vib)   ...       0.00 
freq.    3140.33  E(vib)   ...       0.00 
freq.    3144.08  E(vib)   ...       0.00 
freq.    3144.40  E(vib)   ...       0.00 
freq.    3145.04  E(vib)   ...       0.00 
freq.    3145.62  E(vib)   ...       0.00 
freq.    3157.92  E(vib)   ...       0.00 
freq.    3166.31  E(vib)   ...       0.00 
freq.    3167.10  E(vib)   ...       0.00 

------------
INNER ENERGY
------------

The inner energy is: U= E(el) + E(ZPE) + E(vib) + E(rot) + E(trans)
    E(el)   - is the total energy from the electronic structure calculation
              = E(kin-el) + E(nuc-el) + E(el-el) + E(nuc-nuc)
    E(ZPE)  - the the zero temperature vibrational energy from the frequency calculation
    E(vib)  - the the finite temperature correction to E(ZPE) due to population
              of excited vibrational states
    E(rot)  - is the rotational thermal energy
    E(trans)- is the translational thermal energy

Summary of contributions to the inner energy U:
Electronic energy                ...  -5979.57100436 Eh
Zero point energy                ...      0.59391623 Eh     372.69 kcal/mol
Thermal vibrational correction   ...      0.03653407 Eh      22.93 kcal/mol
Thermal rotational correction    ...      0.00141627 Eh       0.89 kcal/mol
Thermal translational correction ...      0.00141627 Eh       0.89 kcal/mol
-----------------------------------------------------------------------
Total thermal energy                  -5978.93772152 Eh


Summary of corrections to the electronic energy:
(perhaps to be used in another calculation)
Total thermal correction                  0.03936661 Eh      24.70 kcal/mol
Non-thermal (ZPE) correction              0.59391623 Eh     372.69 kcal/mol
-----------------------------------------------------------------------
Total correction                          0.63328284 Eh     397.39 kcal/mol


--------
ENTHALPY
--------

The enthalpy is H = U + kB*T
                kB is Boltzmann's constant
Total free energy                 ...  -5978.93772152 Eh 
Thermal Enthalpy correction       ...      0.00094421 Eh       0.59 kcal/mol
-----------------------------------------------------------------------
Total Enthalpy                    ...  -5978.93677732 Eh


Note: Only C1 symmetry has been detected, increase convergence thresholds 
      if your molecule has a higher symmetry. Symmetry factor of 1.0 is   
      used for the rotational entropy correction. 
 

Note: Rotational entropy computed according to Herzberg 
Infrared and Raman Spectra, Chapter V,1, Van Nostrand Reinhold, 1945 
Point Group:  C1, Symmetry Number:   1  
Rotational constants in cm-1:     0.003057     0.001978     0.001756 

Vibrational entropy computed according to the QRRHO of S. Grimme
Chem.Eur.J. 2012 18 9955


-------
ENTROPY
-------

The entropy contributions are T*S = T*(S(el)+S(vib)+S(rot)+S(trans))
     S(el)   - electronic entropy
     S(vib)  - vibrational entropy
     S(rot)  - rotational entropy
     S(trans)- translational entropy
The entropies will be listed as multiplied by the temperature to get
units of energy

Electronic entropy                ...      0.00000000 Eh      0.00 kcal/mol
Vibrational entropy               ...      0.06612536 Eh     41.49 kcal/mol
Rotational entropy                ...      0.01817872 Eh     11.41 kcal/mol
Translational entropy             ...      0.02164958 Eh     13.59 kcal/mol
-----------------------------------------------------------------------
Final entropy term                ...      0.10595366 Eh     66.49 kcal/mol

In case the symmetry of your molecule has not been determined correctly
or in case you have a reason to use a different symmetry number we print 
out the resulting rotational entropy values for sn=1,12 :
 --------------------------------------------------------
|  sn= 1 | S(rot)=       0.01817872 Eh     11.41 kcal/mol|
|  sn= 2 | S(rot)=       0.01752426 Eh     11.00 kcal/mol|
|  sn= 3 | S(rot)=       0.01714143 Eh     10.76 kcal/mol|
|  sn= 4 | S(rot)=       0.01686980 Eh     10.59 kcal/mol|
|  sn= 5 | S(rot)=       0.01665912 Eh     10.45 kcal/mol|
|  sn= 6 | S(rot)=       0.01648697 Eh     10.35 kcal/mol|
|  sn= 7 | S(rot)=       0.01634143 Eh     10.25 kcal/mol|
|  sn= 8 | S(rot)=       0.01621535 Eh     10.18 kcal/mol|
|  sn= 9 | S(rot)=       0.01610414 Eh     10.11 kcal/mol|
|  sn=10 | S(rot)=       0.01600466 Eh     10.04 kcal/mol|
|  sn=11 | S(rot)=       0.01591467 Eh      9.99 kcal/mol|
|  sn=12 | S(rot)=       0.01583252 Eh      9.94 kcal/mol|
 --------------------------------------------------------


-------------------
GIBBS FREE ENERGY
-------------------

The Gibbs free energy is G = H - T*S

Total enthalpy                    ...  -5978.93677732 Eh 
Total entropy correction          ...     -0.10595366 Eh    -66.49 kcal/mol
-----------------------------------------------------------------------
Final Gibbs free energy         ...  -5979.04273098 Eh

For completeness - the Gibbs free energy minus the electronic energy
G-E(el)                           ...      0.52827338 Eh    331.50 kcal/mol


Timings for individual modules:

Sum of individual times         ...     3517.354 sec (=  58.623 min)
GTO integral calculation        ...       46.341 sec (=   0.772 min)   1.3 %
SCF iterations                  ...     1101.525 sec (=  18.359 min)  31.3 %
SCF Gradient evaluation         ...      197.987 sec (=   3.300 min)   5.6 %
Geometry relaxation             ...       11.730 sec (=   0.195 min)   0.3 %
Analytical frequency calculation...     2159.772 sec (=  35.996 min)  61.4 %
                             ****ORCA TERMINATED NORMALLY****
TOTAL RUN TIME: 0 days 1 hours 0 minutes 27 seconds 350 msec
