
                                 *****************
                                 * O   R   C   A *
                                 *****************

                                            #,                                       
                                            ###                                      
                                            ####                                     
                                            #####                                    
                                            ######                                   
                                           ########,                                 
                                     ,,################,,,,,                         
                               ,,#################################,,                 
                          ,,##########################################,,             
                       ,#########################################, ''#####,          
                    ,#############################################,,   '####,        
                  ,##################################################,,,,####,       
                ,###########''''           ''''###############################       
              ,#####''   ,,,,##########,,,,          '''####'''          '####       
            ,##' ,,,,###########################,,,                        '##       
           ' ,,###''''                  '''############,,,                           
         ,,##''                                '''############,,,,        ,,,,,,###''
      ,#''                                            '''#######################'''  
     '                                                          ''''####''''         
             ,#######,   #######,   ,#######,      ##                                
            ,#'     '#,  ##    ##  ,#'     '#,    #''#        ######   ,####,        
            ##       ##  ##   ,#'  ##            #'  '#       #        #'  '#        
            ##       ##  #######   ##           ,######,      #####,   #    #        
            '#,     ,#'  ##    ##  '#,     ,#' ,#      #,         ##   #,  ,#        
             '#######'   ##     ##  '#######'  #'      '#     #####' # '####'        



                  #######################################################
                  #                        -***-                        #
                  #          Department of theory and spectroscopy      #
                  #    Directorship and core code : Frank Neese         #
                  #        Max Planck Institute fuer Kohlenforschung    #
                  #                Kaiser Wilhelm Platz 1               #
                  #                 D-45470 Muelheim/Ruhr               #
                  #                      Germany                        #
                  #                                                     #
                  #                  All rights reserved                #
                  #                        -***-                        #
                  #######################################################


                         Program Version 5.0.1 -  RELEASE  -


 With contributions from (in alphabetic order):
   Daniel Aravena         : Magnetic Suceptibility
   Michael Atanasov       : Ab Initio Ligand Field Theory (pilot matlab implementation)
   Alexander A. Auer      : GIAO ZORA, VPT2 properties, NMR spectrum
   Ute Becker             : Parallelization
   Giovanni Bistoni       : ED, misc. LED, open-shell LED, HFLD
   Martin Brehm           : Molecular dynamics
   Dmytro Bykov           : SCF Hessian
   Vijay G. Chilkuri      : MRCI spin determinant printing, contributions to CSF-ICE
   Dipayan Datta          : RHF DLPNO-CCSD density
   Achintya Kumar Dutta   : EOM-CC, STEOM-CC
   Dmitry Ganyushin       : Spin-Orbit,Spin-Spin,Magnetic field MRCI
   Miquel Garcia          : C-PCM and meta-GGA Hessian, CC/C-PCM, Gaussian charge scheme
   Yang Guo               : DLPNO-NEVPT2, F12-NEVPT2, CIM, IAO-localization
   Andreas Hansen         : Spin unrestricted coupled pair/coupled cluster methods
   Benjamin Helmich-Paris : MC-RPA, TRAH-SCF, COSX integrals
   Lee Huntington         : MR-EOM, pCC
   Robert Izsak           : Overlap fitted RIJCOSX, COSX-SCS-MP3, EOM
   Marcus Kettner         : VPT2
   Christian Kollmar      : KDIIS, OOCD, Brueckner-CCSD(T), CCSD density, CASPT2, CASPT2-K
   Simone Kossmann        : Meta GGA functionals, TD-DFT gradient, OOMP2, MP2 Hessian
   Martin Krupicka        : Initial AUTO-CI
   Lucas Lang             : DCDCAS
   Marvin Lechner         : AUTO-CI (C++ implementation), FIC-MRCC
   Dagmar Lenk            : GEPOL surface, SMD
   Dimitrios Liakos       : Extrapolation schemes; Compound Job, initial MDCI parallelization
   Dimitrios Manganas     : Further ROCIS development; embedding schemes
   Dimitrios Pantazis     : SARC Basis sets
   Anastasios Papadopoulos: AUTO-CI, single reference methods and gradients
   Taras Petrenko         : DFT Hessian,TD-DFT gradient, ASA, ECA, R-Raman, ABS, FL, XAS/XES, NRVS
   Peter Pinski           : DLPNO-MP2, DLPNO-MP2 Gradient
   Christoph Reimann      : Effective Core Potentials
   Marius Retegan         : Local ZFS, SOC
   Christoph Riplinger    : Optimizer, TS searches, QM/MM, DLPNO-CCSD(T), (RO)-DLPNO pert. Triples
   Tobias Risthaus        : Range-separated hybrids, TD-DFT gradient, RPA, STAB
   Michael Roemelt        : Original ROCIS implementation
   Masaaki Saitow         : Open-shell DLPNO-CCSD energy and density
   Barbara Sandhoefer     : DKH picture change effects
   Avijit Sen             : IP-ROCIS
   Kantharuban Sivalingam : CASSCF convergence, NEVPT2, FIC-MRCI
   Bernardo de Souza      : ESD, SOC TD-DFT
   Georgi Stoychev        : AutoAux, RI-MP2 NMR, DLPNO-MP2 response
   Willem Van den Heuvel  : Paramagnetic NMR
   Boris Wezisla          : Elementary symmetry handling
   Frank Wennmohs         : Technical directorship


 We gratefully acknowledge several colleagues who have allowed us to
 interface, adapt or use parts of their codes:
   Stefan Grimme, W. Hujo, H. Kruse, P. Pracht,  : VdW corrections, initial TS optimization,
                  C. Bannwarth, S. Ehlert          DFT functionals, gCP, sTDA/sTD-DF
   Ed Valeev, F. Pavosevic, A. Kumar             : LibInt (2-el integral package), F12 methods
   Garnet Chan, S. Sharma, J. Yang, R. Olivares  : DMRG
   Ulf Ekstrom                                   : XCFun DFT Library
   Mihaly Kallay                                 : mrcc  (arbitrary order and MRCC methods)
   Jiri Pittner, Ondrej Demel                    : Mk-CCSD
   Frank Weinhold                                : gennbo (NPA and NBO analysis)
   Christopher J. Cramer and Donald G. Truhlar   : smd solvation model
   Lars Goerigk                                  : TD-DFT with DH, B97 family of functionals
   V. Asgeirsson, H. Jonsson                     : NEB implementation
   FAccTs GmbH                                   : IRC, NEB, NEB-TS, DLPNO-Multilevel, CI-OPT
                                                   MM, QMMM, 2- and 3-layer-ONIOM, Crystal-QMMM,
                                                   LR-CPCM, SF, NACMEs, symmetry and pop. for TD-DFT,
                                                   nearIR, NL-DFT gradient (VV10), updates on ESD,
                                                   ML-optimized integration grids
   S Lehtola, MJT Oliveira, MAL Marques          : LibXC Library
   Liviu Ungur et al                             : ANISO software


 Your calculation uses the libint2 library for the computation of 2-el integrals
 For citations please refer to: http://libint.valeyev.net

 Your ORCA version has been built with support for libXC version: 5.1.0
 For citations please refer to: https://tddft.org/programs/libxc/

 This ORCA versions uses:
   CBLAS   interface :  Fast vector & matrix operations
   LAPACKE interface :  Fast linear algebra routines
   SCALAPACK package :  Parallel linear algebra routines
   Shared memory     :  Shared parallel matrices
   BLAS/LAPACK       :  OpenBLAS 0.3.15  USE64BITINT DYNAMIC_ARCH NO_AFFINITY Zen SINGLE_THREADED
        Core in use  :  Zen
   Copyright (c) 2011-2014, The OpenBLAS Project




***************************************
The coordinates will be read from file: /scratch/negishi/li1724/Test-CentralizedCode-4-5/DFT/CWMHSQPVYVHHDK-QJPJQTDYNZXKQF_0_0/CWMHSQPVYVHHDK-QJPJQTDYNZXKQF_0_0-FullTZ.xyz
***************************************


Your calculation utilizes the atom-pairwise dispersion correction
with the Becke-Johnson damping scheme (D3BJ)
Cite in your paper:
S.Grimme, S.Ehrlich, L.Goerigk, J Comput Chem, (2011), 32, 1456–1465 
S.Grimme, J.Antony, S.Ehrlich and H.Krieg, J.Chem.Phys., 132, (2010), 154104 
   

Your calculation employs the composite approach B97-3c by Grimme and coworkers.
For the correct reference, please check the publication list of the Grimme group:
http://www.thch.uni-bonn.de/tc/index.php?section=publikationen&subsection=grimme#2017
   

XCFun DFT library Copyright 2009-2010 Ulf Ekstrom and contributors.
See http://admol.org/xcfun for more information.
This is free software; see the source code for copying conditions.
There is ABSOLUTELY NO WARRANTY; not even for MERCHANTABILITY or FITNESS FOR A PARTICULAR PURPOSE.
For details see the documentation.
Scientific users of this library should cite U. Ekstrom, L. Visscher, R. Bast, A. J. Thorvaldsen and K. Ruud;
J.Chem.Theor.Comp. 2010, DOI: 10.1021/ct100117s
XCFun Version 0.99 

================================================================================

----- Orbital basis set information -----
Your calculation utilizes the basis: def2-mTZVP
----- AuxJ basis set information -----
Your calculation utilizes the basis: def2-mTZVP/J
================================================================================
                                        WARNINGS
                       Please study these warnings very carefully!
================================================================================

WARNING: Old DensityContainer found on disk!
         Will remove this file - 
         If you want to keep old densities, please start your calculation with a different basename. 

WARNING: Gradients needed for Numerical Frequencies
  ===> : Setting RunTyp to EnGrad

WARNING: The environment variable RSH_COMMAND is not set!
  ===> : All Displacements for the Numerical Hessian calculation
         will be started on localhost

INFO   : the flag for use of the SHARK integral package has been found!

================================================================================
                                       INPUT FILE
================================================================================
NAME = /scratch/negishi/li1724/Test-CentralizedCode-4-5/DFT/CWMHSQPVYVHHDK-QJPJQTDYNZXKQF_0_0/CWMHSQPVYVHHDK-QJPJQTDYNZXKQF_0_0-FullTZ.in
|  1> ! B97-3c def2-mTZVP CPCM(DMSO) defgrid2 NumFreq
|  2> 
|  3> %scf
|  4>   MaxIter 500
|  5> end
|  6> 
|  7> %pal
|  8>   nproc 32
|  9> end
| 10> 
| 11> %maxcore 7200
| 12> 
| 13> %base "CWMHSQPVYVHHDK-QJPJQTDYNZXKQF_0_0-FullTZ"
| 14> 
| 15> *xyzfile -1 1 /scratch/negishi/li1724/Test-CentralizedCode-4-5/DFT/CWMHSQPVYVHHDK-QJPJQTDYNZXKQF_0_0/CWMHSQPVYVHHDK-QJPJQTDYNZXKQF_0_0-FullTZ.xyz
| 16> 
| 17>                          ****END OF INPUT****
================================================================================

                     *******************************
                     * Energy+Gradient Calculation *
                     *******************************

---------------------------------
CARTESIAN COORDINATES (ANGSTROEM)
---------------------------------
  Br     0.113959    3.262458   -0.975354
  C     -2.532363   -0.956209   -1.954835
  C     -4.168230   -2.145465   -0.553704
  C      3.349845   -2.022548   -1.398949
  C      0.904478   -1.823306   -1.415602
  C     -3.130522   -2.589534    0.242306
  C      0.834332   -3.205717   -1.654461
  C     -1.454122   -1.406482   -1.097308
  C      3.249028   -3.402080   -1.633698
  C     -2.273173   -0.171577   -3.103392
  C     -3.890895   -1.313312   -1.667734
  C      2.204495   -1.206875   -1.277251
  C     -1.780218   -2.231431    0.010337
  C      1.988849   -3.996871   -1.760688
  C     -4.914876    0.152690    2.674687
  C     -3.748495    1.744773   -0.393778
  C     -3.729337    1.262050    0.927638
  C     -3.295688    0.282133   -3.918892
  C     -4.923577   -0.824209   -2.511987
  C     -2.600064    2.264781   -0.973257
  C     -2.540719    1.339152    1.672454
  C     -1.426534    2.304834   -0.225511
  C     -1.390150    1.885797    1.097466
  C     -0.754315   -4.018089    1.436240
  C     -0.769095   -2.684282    0.989483
  C     -4.637756   -0.037329   -3.612528
  C      3.406204    0.851722   -1.136880
  C      3.913840    1.110574   -2.430160
  C      4.249659    0.234104    3.593614
  C      4.606951    0.456953    2.260165
  C      2.999128    0.647373    4.060681
  C      3.721042    1.088298    1.372389
  C      4.132422    1.361074   -0.024645
  C      0.188244   -4.458458    2.369326
  C      5.070354    1.858724   -2.635305
  C      0.183357   -1.799902    1.526989
  C      2.114551    1.281274    3.181211
  C      2.474585    1.491251    1.857946
  C      5.303769    2.105256   -0.249009
  C      5.777025    2.365256   -1.535974
  C      1.140840   -3.570560    2.878747
  C      1.127450   -2.235765    2.455208
  Cu     0.407654    0.851774   -1.029043
  H     -1.236997    0.081866   -3.326090
  H     -4.697533    0.883833    3.466299
  H     -5.200526   -2.411236   -0.325083
  H      4.331827   -1.561408   -1.285056
  H     -0.149318   -3.663772   -1.764973
  H     -3.354764   -3.201780    1.117309
  H      4.156473   -4.004106   -1.710727
  H     -5.929742   -0.234277    2.810104
  H     -1.476203   -4.724857    1.025113
  H     -4.666405    1.675758   -0.972845
  H     -2.613338    2.617131   -2.001139
  H     -2.492275    0.988870    2.700637
  H      1.895621   -5.067871   -1.948642
  H     -3.066292    0.888100   -4.796416
  H      3.360571    0.708102   -3.280187
  H     -4.199048   -0.679792    2.731379
  H     -5.956702   -1.082346   -2.272746
  H     -0.480046    1.973898    1.684000
  H      4.948849   -0.264919    4.265750
  H      5.581840    0.130939    1.895521
  H     -5.445124    0.329162   -4.248399
  H      2.714144    0.475793    5.099298
  H      0.185906   -5.501831    2.688501
  H      0.189164   -0.761793    1.196434
  H      5.419821    2.052298   -3.651096
  H      1.136936    1.613444    3.531683
  H      1.790123    1.993543    1.180744
  H      5.847340    2.492089    0.614753
  H      6.681194    2.957418   -1.679755
  H      1.885527   -3.913103    3.598605
  H      1.855731   -1.526259    2.849893
  N     -0.184746   -0.981010   -1.387223
  N      2.230553    0.130728   -0.985870
  O     -4.891797    0.757767    1.391411

----------------------------
CARTESIAN COORDINATES (A.U.)
----------------------------
  NO LB      ZA    FRAG     MASS         X           Y           Z
   0 Br   35.0000    0    79.900    0.215351    6.165153   -1.843153
   1 C     6.0000    0    12.011   -4.785472   -1.806974   -3.694103
   2 C     6.0000    0    12.011   -7.876813   -4.054342   -1.046349
   3 C     6.0000    0    12.011    6.330290   -3.822062   -2.643630
   4 C     6.0000    0    12.011    1.709216   -3.445550   -2.675099
   5 C     6.0000    0    12.011   -5.915830   -4.893511    0.457892
   6 C     6.0000    0    12.011    1.576660   -6.057928   -3.126479
   7 C     6.0000    0    12.011   -2.747892   -2.657867   -2.073612
   8 C     6.0000    0    12.011    6.139773   -6.429000   -3.087242
   9 C     6.0000    0    12.011   -4.295674   -0.324233   -5.864560
  10 C     6.0000    0    12.011   -7.352727   -2.481800   -3.151560
  11 C     6.0000    0    12.011    4.165892   -2.280664   -2.413655
  12 C     6.0000    0    12.011   -3.364125   -4.216793    0.019534
  13 C     6.0000    0    12.011    3.758381   -7.552991   -3.327217
  14 C     6.0000    0    12.011   -9.287769    0.288543    5.054426
  15 C     6.0000    0    12.011   -7.083628    3.297144   -0.744132
  16 C     6.0000    0    12.011   -7.047426    2.384928    1.752981
  17 C     6.0000    0    12.011   -6.227948    0.533155   -7.405632
  18 C     6.0000    0    12.011   -9.304211   -1.557529   -4.746968
  19 C     6.0000    0    12.011   -4.913409    4.279815   -1.839189
  20 C     6.0000    0    12.011   -4.801263    2.530631    3.160481
  21 C     6.0000    0    12.011   -2.695759    4.355505   -0.426155
  22 C     6.0000    0    12.011   -2.627004    3.563639    2.073910
  23 C     6.0000    0    12.011   -1.425448   -7.593088    2.714100
  24 C     6.0000    0    12.011   -1.453379   -5.072559    1.869852
  25 C     6.0000    0    12.011   -8.764090   -0.070541   -6.826689
  26 C     6.0000    0    12.011    6.436792    1.609521   -2.148392
  27 C     6.0000    0    12.011    7.396085    2.098681   -4.592337
  28 C     6.0000    0    12.011    8.030693    0.442392    6.790946
  29 C     6.0000    0    12.011    8.705876    0.863516    4.271092
  30 C     6.0000    0    12.011    5.667531    1.223357    7.673575
  31 C     6.0000    0    12.011    7.031750    2.056586    2.593440
  32 C     6.0000    0    12.011    7.809146    2.572058   -0.046573
  33 C     6.0000    0    12.011    0.355730   -8.425265    4.477377
  34 C     6.0000    0    12.011    9.581581    3.512479   -4.980004
  35 C     6.0000    0    12.011    0.346494   -3.401322    2.885590
  36 C     6.0000    0    12.011    3.995923    2.421258    6.011618
  37 C     6.0000    0    12.011    4.676287    2.818056    3.511010
  38 C     6.0000    0    12.011   10.022671    3.978357   -0.470559
  39 C     6.0000    0    12.011   10.916995    4.469687   -2.902570
  40 C     6.0000    0    12.011    2.155876   -6.747381    5.440043
  41 C     6.0000    0    12.011    2.130571   -4.224983    4.639670
  42 Cu   29.0000    0    63.550    0.770354    1.609620   -1.944610
  43 H     1.0000    0     1.008   -2.337586    0.154704   -6.285399
  44 H     1.0000    0     1.008   -8.877052    1.670201    6.550356
  45 H     1.0000    0     1.008   -9.827569   -4.556576   -0.614317
  46 H     1.0000    0     1.008    8.185967   -2.950633   -2.428405
  47 H     1.0000    0     1.008   -0.282170   -6.923525   -3.335316
  48 H     1.0000    0     1.008   -6.339585   -6.050487    2.111409
  49 H     1.0000    0     1.008    7.854597   -7.566664   -3.232806
  50 H     1.0000    0     1.008  -11.205589   -0.442720    5.310328
  51 H     1.0000    0     1.008   -2.789620   -8.928685    1.937183
  52 H     1.0000    0     1.008   -8.818228    3.166724   -1.838410
  53 H     1.0000    0     1.008   -4.938492    4.945660   -3.781604
  54 H     1.0000    0     1.008   -4.709717    1.868694    5.103464
  55 H     1.0000    0     1.008    3.582205   -9.576888   -3.682399
  56 H     1.0000    0     1.008   -5.794452    1.678266   -9.063912
  57 H     1.0000    0     1.008    6.350558    1.338119   -6.198655
  58 H     1.0000    0     1.008   -7.935050   -1.284621    5.161558
  59 H     1.0000    0     1.008  -11.256536   -2.045338   -4.294868
  60 H     1.0000    0     1.008   -0.907155    3.730126    3.182299
  61 H     1.0000    0     1.008    9.351970   -0.500624    8.061099
  62 H     1.0000    0     1.008   10.548150    0.247438    3.582016
  63 H     1.0000    0     1.008  -10.289793    0.622026   -8.028311
  64 H     1.0000    0     1.008    5.128989    0.899118    9.636276
  65 H     1.0000    0     1.008    0.351311  -10.396954    5.080531
  66 H     1.0000    0     1.008    0.357468   -1.439581    2.260932
  67 H     1.0000    0     1.008   10.241978    3.878282   -6.899571
  68 H     1.0000    0     1.008    2.148497    3.048968    6.673913
  69 H     1.0000    0     1.008    3.382843    3.767251    2.231282
  70 H     1.0000    0     1.008   11.049872    4.709366    1.161715
  71 H     1.0000    0     1.008   12.625628    5.588710   -3.174277
  72 H     1.0000    0     1.008    3.563130   -7.394694    6.800378
  73 H     1.0000    0     1.008    3.506823   -2.884211    5.385518
  74 N     7.0000    0    14.007   -0.349120   -1.853841   -2.621472
  75 N     7.0000    0    14.007    4.215135    0.247039   -1.863023
  76 O     8.0000    0    15.999   -9.244157    1.431971    2.629385

--------------------------------
INTERNAL COORDINATES (ANGSTROEM)
--------------------------------
 Br     0   0   0     0.000000000000     0.00000000     0.00000000
 C      1   0   0     5.075387339129     0.00000000     0.00000000
 C      2   1   0     2.460398128256   129.68287791     0.00000000
 C      2   1   3     6.003870484082    67.59959270   247.74280596
 C      4   2   1     2.453527196732     7.46299085   129.03629563
 C      3   2   1     1.381182858422    89.08739142   287.04451904
 C      5   4   2     1.404647343690    88.33851190   128.81391621
 C      2   1   3     1.449380070556    75.88651537   281.45068515
 C      4   2   1     1.402989665450    95.09137284   180.33065517
 C      2   1   3     1.414923838445    66.43486513   147.78588949
 C      3   2   1     1.417905376436    30.55375540   106.58967545
 C      4   2   1     1.411368022456    27.16002802    11.91058978
 C      6   3   2     1.416110368588   122.73092899     1.33176254
 C      9   4   2     1.399268322836   119.85894139   354.21830097
 C      3   2   1     4.032556306612   107.67086807     8.35766745
 C     11   3   2     3.315890559001   104.34739466   274.90942297
 C     16  11   3     1.406956966137    92.57922207    11.68673022
 C     10   2   1     1.384352057262   121.64324900   236.02033413
 C     11   3   2     1.420709759291   121.78721247   179.85468983
 C     16  11   3     1.387478353228   102.75209263   133.90769766
 C     17  16  11     1.404816898993   119.38282892   107.97080291
 C     20  16  11     1.392084930034   118.96063081   259.04144926
 C     22  20  16     1.388230933912   121.68854301   357.51108209
 C     13   6   3     2.505558858216    96.71207725   196.34706267
 C     24  13   6     1.406716221424    30.55296506   220.75496766
 C     19  11   3     1.382773798230   121.23974635   181.43227958
 C     12   4   2     2.387808756137    95.44602697   198.93202146
 C     27  12   4     1.413248661615   106.55197435    72.20749857
 C     27  12   4     4.844630267243    92.01221249   277.74659524
 C     29  27  12     1.398358092569    24.91298574   125.05061149
 C     29  27  12     1.397415948984    97.63481068   280.49485342
 C     30  29  27     1.404128812947   120.88792221    28.08175606
 C     27  12   4     1.422638032948   127.70063205   284.55673498
 C     24  13   6     1.397494481353   151.74343329   221.68883678
 C     28  27  12     1.392601088303   122.10743209   207.37394227
 C     25  24  13     1.406486765462   117.88584734   178.53860572
 C     31  29  27     1.399204930265   119.31735201   348.42561408
 C     37  31  29     1.387351482508   120.26633741     0.28290120
 C     33  27  12     1.405773704503   119.34731036   145.24491031
 C     39  33  27     1.395653849651   121.89313474     0.21111952
 C     34  24  13     1.398324557897   120.17395545   359.46256332
 C     36  25  24     1.393871588106   121.10046745     1.11278873
 Cu     1   2   3     2.429101914494    39.99299769   101.95783929
 H     10   2   1     1.089718912039   117.97236254    55.18829697
 H     15   3   2     1.099298093780   156.77130402   328.90490799
 H      3   2   1     1.090200380391   150.09128573   105.47278084
 H      4   2   1     1.090830328154   144.74166006   353.00858313
 H      7   5   4     1.090685381574   118.39768668   180.67016378
 H      6   3   2     1.091219669307   119.21762313   178.21488535
 H      9   4   2     1.091707962610   119.62417894   174.53127085
 H     15   3   2     1.094548394635    93.97035103   151.68498088
 H     24  13   6     1.090719408484    88.65677482    42.63272052
 H     16  11   3     1.087493105840    72.58120009   251.70307453
 H     20  16  11     1.086677371748   120.42860384    77.87179799
 H     21  17  16     1.087291789198   121.42492933   179.14176176
 H     14   9   4     1.091356995636   120.64426061   179.67575525
 H     18  10   2     1.090809751053   120.04209858   179.80835597
 H     28  27  12     1.091162623510   117.59334910    27.88012852
 H     15   3   2     1.099386766039    59.28178627   261.75117326
 H     19  11   3     1.091430005223   118.44823599     1.51796263
 H     23  22  20     1.086312503288   120.79907071   183.37292842
 H     29  27  12     1.090713983318   140.50222602    84.33978989
 H     30  29  27     1.090714862049   119.96946605   208.61882052
 H     26  19  11     1.091095563180   120.13405396   180.04064470
 H     31  29  27     1.090587448304   120.37293706   168.28594709
 H     34  24  13     1.091102908944   119.68282821   180.28370957
 H     36  25  24     1.089481731934   119.13026166   180.09542905
 H     35  28  27     1.091526416726   119.88429352   181.14355134
 H     37  31  29     1.090366797866   120.18608514   180.26717930
 H     38  37  31     1.085996268132   120.08038057   180.68778929
 H     39  33  27     1.091418542653   118.44431111   179.77979830
 H     40  39  33     1.090344412625   120.26275233   179.14404194
 H     41  34  24     1.090912758468   120.40108635   180.70624445
 H     42  36  25     1.090673594997   119.32959330   179.71791620
 N      8   2   1     1.369814316799   117.88319032   313.16847360
 N     12   4   2     1.369220100895   124.57543535   190.33303908
 O     17  16  11     1.349332888161   116.05942317   287.46817662

---------------------------
INTERNAL COORDINATES (A.U.)
---------------------------
 Br     0   0   0     0.000000000000     0.00000000     0.00000000
 C      1   0   0     9.591092094526     0.00000000     0.00000000
 C      2   1   0     4.649478642817   129.68287791     0.00000000
 C      2   1   3    11.345670958448    67.59959270   247.74280596
 C      4   2   1     4.636494463951     7.46299085   129.03629563
 C      3   2   1     2.610057343284    89.08739142   287.04451904
 C      5   4   2     2.654398794315    88.33851190   128.81391621
 C      2   1   3     2.738931397315    75.88651537   281.45068515
 C      4   2   1     2.651266236422    95.09137284   180.33065517
 C      2   1   3     2.673818555017    66.43486513   147.78588949
 C      3   2   1     2.679452845279    30.55375540   106.58967545
 C      4   2   1     2.667099036616    27.16002802    11.91058978
 C      6   3   2     2.676060772038   122.73092899     1.33176254
 C      9   4   2     2.644233918032   119.85894139   354.21830097
 C      3   2   1     7.620427039114   107.67086807     8.35766745
 C     11   3   2     6.266125046567   104.34739466   274.90942297
 C     16  11   3     2.658763348211    92.57922207    11.68673022
 C     10   2   1     2.616046261155   121.64324900   236.02033413
 C     11   3   2     2.684752360849   121.78721247   179.85468983
 C     16  11   3     2.621954104346   102.75209263   133.90769766
 C     17  16  11     2.654719207400   119.38282892   107.97080291
 C     20  16  11     2.630659272923   118.96063081   259.04144926
 C     22  20  16     2.623376275732   121.68854301   357.51108209
 C     13   6   3     4.734820054448    96.71207725   196.34706267
 C     24  13   6     2.658308406636    30.55296506   220.75496766
 C     19  11   3     2.613063783817   121.23974635   181.43227958
 C     12   4   2     4.512304609278    95.44602697   198.93202146
 C     27  12   4     2.670652929584   106.55197435    72.20749857
 C     27  12   4     9.155024425194    92.01221249   277.74659524
 C     29  27  12     2.642513832108    24.91298574   125.05061149
 C     29  27  12     2.640733438753    97.63481068   280.49485342
 C     30  29  27     2.653418913218   120.88792221    28.08175606
 C     27  12   4     2.688396269972   127.70063205   284.55673498
 C     24  13   6     2.640881843423   151.74343329   221.68883678
 C     28  27  12     2.631634670693   122.10743209   207.37394227
 C     25  24  13     2.657874797708   117.88584734   178.53860572
 C     31  29  27     2.644114123434   119.31735201   348.42561408
 C     37  31  29     2.621714353431   120.26633741     0.28290120
 C     33  27  12     2.656527307779   119.34731036   145.24491031
 C     39  33  27     2.637403553592   121.89313474     0.21111952
 C     34  24  13     2.642450460762   120.17395545   359.46256332
 C     36  25  24     2.634035567374   121.10046745     1.11278873
 Cu     1   2   3     4.590337369777    39.99299769   101.95783929
 H     10   2   1     2.059270306708   117.97236254    55.18829697
 H     15   3   2     2.077372336786   156.77130402   328.90490799
 H      3   2   1     2.060180150035   150.09128573   105.47278084
 H      4   2   1     2.061370578786   144.74166006   353.00858313
 H      7   5   4     2.061096669447   118.39768668   180.67016378
 H      6   3   2     2.062106326938   119.21762313   178.21488535
 H      9   4   2     2.063029067553   119.62417894   174.53127085
 H     15   3   2     2.068396706184    93.97035103   151.68498088
 H     24  13   6     2.061160970988    88.65677482    42.63272052
 H     16  11   3     2.055064142564    72.58120009   251.70307453
 H     20  16  11     2.053522628533   120.42860384    77.87179799
 H     21  17  16     2.054683709245   121.42492933   179.14176176
 H     14   9   4     2.062365836090   120.64426061   179.67575525
 H     18  10   2     2.061331693700   120.04209858   179.80835597
 H     28  27  12     2.061998526006   117.59334910    27.88012852
 H     15   3   2     2.077539903070    59.28178627   261.75117326
 H     19  11   3     2.062503804216   118.44823599     1.51796263
 H     23  22  20     2.052833127069   120.79907071   183.37292842
 H     29  27  12     2.061150718909   140.50222602    84.33978989
 H     30  29  27     2.061152379471   119.96946605   208.61882052
 H     26  19  11     2.061871800346   120.13405396   180.04064470
 H     31  29  27     2.060911602387   120.37293706   168.28594709
 H     34  24  13     2.061885681828   119.68282821   180.28370957
 H     36  25  24     2.058822101265   119.13026166   180.09542905
 H     35  28  27     2.062685995552   119.88429352   181.14355134
 H     37  31  29     2.060494633488   120.18608514   180.26717930
 H     38  37  31     2.052235529231   120.08038057   180.68778929
 H     39  33  27     2.062482143098   118.44431111   179.77979830
 H     40  39  33     2.060452331512   120.26275233   179.14404194
 H     41  34  24     2.061526349505   120.40108635   180.70624445
 H     42  36  25     2.061074396043   119.32959330   179.71791620
 N      8   2   1     2.588573913074   117.88319032   313.16847360
 N     12   4   2     2.587451007751   124.57543535   190.33303908
 O     17  16  11     2.549869622116   116.05942317   287.46817662

---------------------
BASIS SET INFORMATION
---------------------
There are 6 groups of distinct atoms

 Group   1 Type Br  : 17s13p7d contracted to 6s5p3d pattern {842111/64111/511}
 Group   2 Type C   : 11s6p1d contracted to 5s3p1d pattern {62111/411/1}
 Group   3 Type Cu  : 17s11p6d contracted to 6s4p3d pattern {842111/6311/411}
 Group   4 Type H   : 5s contracted to 3s pattern {311}
 Group   5 Type N   : 11s6p1d contracted to 5s3p1d pattern {62111/411/1}
 Group   6 Type O   : 11s6p2d contracted to 5s3p2d pattern {62111/411/11}

Atom   0Br   basis set group =>   1
Atom   1C    basis set group =>   2
Atom   2C    basis set group =>   2
Atom   3C    basis set group =>   2
Atom   4C    basis set group =>   2
Atom   5C    basis set group =>   2
Atom   6C    basis set group =>   2
Atom   7C    basis set group =>   2
Atom   8C    basis set group =>   2
Atom   9C    basis set group =>   2
Atom  10C    basis set group =>   2
Atom  11C    basis set group =>   2
Atom  12C    basis set group =>   2
Atom  13C    basis set group =>   2
Atom  14C    basis set group =>   2
Atom  15C    basis set group =>   2
Atom  16C    basis set group =>   2
Atom  17C    basis set group =>   2
Atom  18C    basis set group =>   2
Atom  19C    basis set group =>   2
Atom  20C    basis set group =>   2
Atom  21C    basis set group =>   2
Atom  22C    basis set group =>   2
Atom  23C    basis set group =>   2
Atom  24C    basis set group =>   2
Atom  25C    basis set group =>   2
Atom  26C    basis set group =>   2
Atom  27C    basis set group =>   2
Atom  28C    basis set group =>   2
Atom  29C    basis set group =>   2
Atom  30C    basis set group =>   2
Atom  31C    basis set group =>   2
Atom  32C    basis set group =>   2
Atom  33C    basis set group =>   2
Atom  34C    basis set group =>   2
Atom  35C    basis set group =>   2
Atom  36C    basis set group =>   2
Atom  37C    basis set group =>   2
Atom  38C    basis set group =>   2
Atom  39C    basis set group =>   2
Atom  40C    basis set group =>   2
Atom  41C    basis set group =>   2
Atom  42Cu   basis set group =>   3
Atom  43H    basis set group =>   4
Atom  44H    basis set group =>   4
Atom  45H    basis set group =>   4
Atom  46H    basis set group =>   4
Atom  47H    basis set group =>   4
Atom  48H    basis set group =>   4
Atom  49H    basis set group =>   4
Atom  50H    basis set group =>   4
Atom  51H    basis set group =>   4
Atom  52H    basis set group =>   4
Atom  53H    basis set group =>   4
Atom  54H    basis set group =>   4
Atom  55H    basis set group =>   4
Atom  56H    basis set group =>   4
Atom  57H    basis set group =>   4
Atom  58H    basis set group =>   4
Atom  59H    basis set group =>   4
Atom  60H    basis set group =>   4
Atom  61H    basis set group =>   4
Atom  62H    basis set group =>   4
Atom  63H    basis set group =>   4
Atom  64H    basis set group =>   4
Atom  65H    basis set group =>   4
Atom  66H    basis set group =>   4
Atom  67H    basis set group =>   4
Atom  68H    basis set group =>   4
Atom  69H    basis set group =>   4
Atom  70H    basis set group =>   4
Atom  71H    basis set group =>   4
Atom  72H    basis set group =>   4
Atom  73H    basis set group =>   4
Atom  74N    basis set group =>   5
Atom  75N    basis set group =>   5
Atom  76O    basis set group =>   6
---------------------------------
AUXILIARY/J BASIS SET INFORMATION
---------------------------------
There are 6 groups of distinct atoms

 Group   1 Type Br  : 19s5p5d3f1g contracted to 8s4p3d2f1g pattern {121111111/2111/311/21/1}
 Group   2 Type C   : 8s3p3d contracted to 6s3p3d pattern {311111/111/111}
 Group   3 Type Cu  : 19s5p5d3f3g contracted to 8s5p4d3f3g pattern {121111111/11111/2111/111/111}
 Group   4 Type H   : 5s2p contracted to 3s1p pattern {311/2}
 Group   5 Type N   : 8s3p3d contracted to 6s3p3d pattern {311111/111/111}
 Group   6 Type O   : 8s3p3d contracted to 6s3p3d pattern {311111/111/111}

Atom   0Br   basis set group =>   1
Atom   1C    basis set group =>   2
Atom   2C    basis set group =>   2
Atom   3C    basis set group =>   2
Atom   4C    basis set group =>   2
Atom   5C    basis set group =>   2
Atom   6C    basis set group =>   2
Atom   7C    basis set group =>   2
Atom   8C    basis set group =>   2
Atom   9C    basis set group =>   2
Atom  10C    basis set group =>   2
Atom  11C    basis set group =>   2
Atom  12C    basis set group =>   2
Atom  13C    basis set group =>   2
Atom  14C    basis set group =>   2
Atom  15C    basis set group =>   2
Atom  16C    basis set group =>   2
Atom  17C    basis set group =>   2
Atom  18C    basis set group =>   2
Atom  19C    basis set group =>   2
Atom  20C    basis set group =>   2
Atom  21C    basis set group =>   2
Atom  22C    basis set group =>   2
Atom  23C    basis set group =>   2
Atom  24C    basis set group =>   2
Atom  25C    basis set group =>   2
Atom  26C    basis set group =>   2
Atom  27C    basis set group =>   2
Atom  28C    basis set group =>   2
Atom  29C    basis set group =>   2
Atom  30C    basis set group =>   2
Atom  31C    basis set group =>   2
Atom  32C    basis set group =>   2
Atom  33C    basis set group =>   2
Atom  34C    basis set group =>   2
Atom  35C    basis set group =>   2
Atom  36C    basis set group =>   2
Atom  37C    basis set group =>   2
Atom  38C    basis set group =>   2
Atom  39C    basis set group =>   2
Atom  40C    basis set group =>   2
Atom  41C    basis set group =>   2
Atom  42Cu   basis set group =>   3
Atom  43H    basis set group =>   4
Atom  44H    basis set group =>   4
Atom  45H    basis set group =>   4
Atom  46H    basis set group =>   4
Atom  47H    basis set group =>   4
Atom  48H    basis set group =>   4
Atom  49H    basis set group =>   4
Atom  50H    basis set group =>   4
Atom  51H    basis set group =>   4
Atom  52H    basis set group =>   4
Atom  53H    basis set group =>   4
Atom  54H    basis set group =>   4
Atom  55H    basis set group =>   4
Atom  56H    basis set group =>   4
Atom  57H    basis set group =>   4
Atom  58H    basis set group =>   4
Atom  59H    basis set group =>   4
Atom  60H    basis set group =>   4
Atom  61H    basis set group =>   4
Atom  62H    basis set group =>   4
Atom  63H    basis set group =>   4
Atom  64H    basis set group =>   4
Atom  65H    basis set group =>   4
Atom  66H    basis set group =>   4
Atom  67H    basis set group =>   4
Atom  68H    basis set group =>   4
Atom  69H    basis set group =>   4
Atom  70H    basis set group =>   4
Atom  71H    basis set group =>   4
Atom  72H    basis set group =>   4
Atom  73H    basis set group =>   4
Atom  74N    basis set group =>   5
Atom  75N    basis set group =>   5
Atom  76O    basis set group =>   6

Checking for AutoStart:
The File: CWMHSQPVYVHHDK-QJPJQTDYNZXKQF_0_0-FullTZ.gbw exists
Trying to determine its content:
     ... Fine, the file contains calculation information
     ... Fine, the calculation information was read
     ... Fine, the file contains a basis set
     ... Fine, the basis set was read
     ... Fine, the file contains a geometry
     ... Fine, the geometry was read
     ... Fine, the file contains a set of orbitals
     ... Fine, the orbitals can be read
     => possible old guess file was deleted
     => GBW file was renamed to GES file
     => GES file is set as startup file
     => Guess is set to MORead
     ... now leaving AutoStart



           ************************************************************
           *        Program running with 32 parallel MPI-processes    *
           *              working on a common directory               *
           ************************************************************
------------------------------------------------------------------------------
                           ORCA GTO INTEGRAL CALCULATION
                           -- RI-GTO INTEGRALS CHOSEN --
------------------------------------------------------------------------------
------------------------------------------------------------------------------
                   ___                                                        
                  /   \      - P O W E R E D   B Y -                         
                 /     \                                                     
                 |  |  |   _    _      __       _____    __    __             
                 |  |  |  | |  | |    /  \     |  _  \  |  |  /  |          
                  \  \/   | |  | |   /    \    | | | |  |  | /  /          
                 / \  \   | |__| |  /  /\  \   | |_| |  |  |/  /          
                |  |  |   |  __  | /  /__\  \  |    /   |      \           
                |  |  |   | |  | | |   __   |  |    \   |  |\   \          
                \     /   | |  | | |  |  |  |  | |\  \  |  | \   \       
                 \___/    |_|  |_| |__|  |__|  |_| \__\ |__|  \__/        
                                                                              
                      - O R C A' S   B I G   F R I E N D -                    
                                      &                                       
                       - I N T E G R A L  F E E D E R -                       
                                                                              
 v1 FN, 2020, v2 2021                                                         
------------------------------------------------------------------------------


Reading SHARK input file CWMHSQPVYVHHDK-QJPJQTDYNZXKQF_0_0-FullTZ.SHARKINP.tmp ... ok
----------------------
SHARK INTEGRAL PACKAGE
----------------------

Number of atoms                             ...     77
Number of basis functions                   ...   1003
Number of shells                            ...    517
Maximum angular momentum                    ...      2
Integral batch strategy                     ... SHARK/LIBINT Hybrid
RI-J (if used) integral strategy            ... SPLIT-RIJ (Revised 2003 algorithm where possible)
Printlevel                                  ...      1
Contraction scheme used                     ... SEGMENTED contraction
Coulomb Range Separation                    ... NOT USED
Exchange Range Separation                   ... NOT USED
Finite Nucleus Model                        ... NOT USED
Auxiliary Coulomb fitting basis             ... AVAILABLE
   # of basis functions in Aux-J            ...   1655
   # of shells in Aux-J                     ...    693
   Maximum angular momentum in Aux-J        ...      4
Auxiliary J/K fitting basis                 ... NOT available
Auxiliary Correlation fitting basis         ... NOT available
Auxiliary 'external' fitting basis          ... NOT available
Integral threshold                          ...     2.500000e-11
Primitive cut-off                           ...     2.500000e-12
Primitive pair pre-selection threshold      ...     2.500000e-12

Calculating pre-screening integrals         ... done (  1.0 sec) Dimension = 517
Organizing shell pair data                  ... done (  0.4 sec)
Shell pair information
Total number of shell pairs                 ...    133903
Shell pairs after pre-screening             ...     83263
Total number of primitive shell pairs       ...    520876
Primitive shell pairs kept                  ...    184579
          la=0 lb=0:  30204 shell pairs
          la=1 lb=0:  31470 shell pairs
          la=1 lb=1:   7934 shell pairs
          la=2 lb=0:   8355 shell pairs
          la=2 lb=1:   4719 shell pairs
          la=2 lb=2:    581 shell pairs

Calculating one electron integrals          ... done (  0.0 sec)
Calculating RI/J V-Matrix + Cholesky decomp.... done (  0.6 sec)
Calculating Nuclear repulsion               ... done (  0.0 sec) ENN=   7497.810691367162 Eh

SHARK setup successfully completed in   2.2 seconds

Maximum memory used throughout the entire GTOINT-calculation: 116.1 MB


           ************************************************************
           *        Program running with 32 parallel MPI-processes    *
           *              working on a common directory               *
           ************************************************************
-------------------------------------------------------------------------------
                                 ORCA SCF
-------------------------------------------------------------------------------

------------
SCF SETTINGS
------------
Hamiltonian:
 Density Functional     Method          .... DFT(GTOs)
 Exchange Functional    Exchange        .... B973C
 Correlation Functional Correlation     .... B973C
 Gradients option       PostSCFGGA      .... off
   Density functional embedding theory  .... OFF
 RI-approximation to the Coulomb term is turned on
   Number of AuxJ basis functions       .... 1655


General Settings:
 Integral files         IntName         .... CWMHSQPVYVHHDK-QJPJQTDYNZXKQF_0_0-FullTZ
 Hartree-Fock type      HFTyp           .... RHF
 Total Charge           Charge          ....   -1
 Multiplicity           Mult            ....    1
 Number of Electrons    NEL             ....  364
 Basis Dimension        Dim             .... 1003
 Nuclear Repulsion      ENuc            ....   7497.8106913672 Eh

Convergence Acceleration:
 DIIS                   CNVDIIS         .... on
   Start iteration      DIISMaxIt       ....    12
   Startup error        DIISStart       ....  0.200000
   # of expansion vecs  DIISMaxEq       ....     5
   Bias factor          DIISBfac        ....   1.050
   Max. coefficient     DIISMaxC        ....  10.000
 Trust-Rad. Augm. Hess. CNVTRAH         .... auto
   Auto Start mean grad. ratio tolernc. ....  1.125000
   Auto Start start iteration           ....     1
   Auto Start num. interpolation iter.  ....    10
   Max. Number of Micro iterations      ....    16
   Max. Number of Macro iterations      .... Maxiter - #DIIS iter
   Number of Davidson start vectors     ....     2
   Converg. threshold I  (grad. norm)   ....   1.000e-05
   Converg. threshold II (energy diff.) ....   1.000e-08
   Grad. Scal. Fac. for Micro threshold ....   0.100
   Minimum threshold for Micro iter.    ....   0.010
   NR start threshold (gradient norm)   ....   0.001
   Initial trust radius                 ....   0.400
   Minimum AH scaling param. (alpha)    ....   1.000
   Maximum AH scaling param. (alpha)    .... 1000.000
   Orbital update algorithm             .... Taylor
   White noise on init. David. guess    .... on
   Maximum white noise                  ....   0.010
   Quad. conv. algorithm                .... NR
   COSX micro iterations for RIJONX calc.... off
 SOSCF                  CNVSOSCF        .... off
 Level Shifting         CNVShift        .... on
   Level shift para.    LevelShift      ....    0.2500
   Turn off err/grad.   ShiftErr        ....    0.0010
 Zerner damping         CNVZerner       .... off
 Static damping         CNVDamp         .... on
   Fraction old density DampFac         ....    0.7000
   Max. Damping (<1)    DampMax         ....    0.9800
   Min. Damping (>=0)   DampMin         ....    0.0000
   Turn off err/grad.   DampErr         ....    0.1000
 Fernandez-Rico         CNVRico         .... off

SCF Procedure:
 Maximum # iterations   MaxIter         ....   500
 SCF integral mode      SCFMode         .... Direct
   Integral package                     .... SHARK and LIBINT hybrid scheme
 Reset frequency        DirectResetFreq ....    20
 Integral Threshold     Thresh          ....  2.500e-11 Eh
 Primitive CutOff       TCut            ....  2.500e-12 Eh

Convergence Tolerance:
 Convergence Check Mode ConvCheckMode   .... Total+1el-Energy
 Convergence forced     ConvForced      .... 0
 Energy Change          TolE            ....  1.000e-08 Eh
 1-El. energy change                    ....  1.000e-05 Eh
 DIIS Error             TolErr          ....  5.000e-07


Diagonalization of the overlap matrix:
Smallest eigenvalue                        ... 3.538e-06
Time for diagonalization                   ...    0.373 sec
Threshold for overlap eigenvalues          ... 1.000e-08
Number of eigenvalues below threshold      ... 0
Time for construction of square roots      ...    0.370 sec
Total time needed                          ...    0.746 sec

---------------------
INITIAL GUESS: MOREAD
---------------------
Guess MOs are being read from file: CWMHSQPVYVHHDK-QJPJQTDYNZXKQF_0_0-FullTZ.ges
Input Geometry matches current geometry (good)
Input basis set matches current basis set (good)
MOs were renormalized
MOs were reorthogonalized (Cholesky)
                      ------------------
                      INITIAL GUESS DONE (   0.4 sec)
                      ------------------
-------------------
DFT GRID GENERATION
-------------------

General Integration Accuracy     IntAcc      ... 4.388
Radial Grid Type                 RadialGrid  ... OptM3 with GC (2021)
Angular Grid (max. ang.)         AngularGrid ... 4 (Lebedev-302)
Angular grid pruning method      GridPruning ... 4 (adaptive)
Weight generation scheme         WeightScheme... Becke
Basis function cutoff            BFCut       ... 1.0000e-11
Integration weight cutoff        WCut        ... 1.0000e-14
Angular grids for H and He will be reduced by one unit
Partially contracted basis set               ... off
Rotationally invariant grid construction     ... off

Total number of grid points                  ...   379601
Total number of batches                      ...     5976
Average number of points per batch           ...       63
Average number of grid points per atom       ...     4930
Time for grid setup =    2.042 sec


--------------------
CPCM SOLVATION MODEL
--------------------
CPCM parameters:
  Epsilon                                         ...      47.2000
  Refrac                                          ...       1.4790
  Rsolv                                           ...       1.3000
  Surface type                                    ... GAUSSIAN VDW
  Epsilon function type                           ...         CPCM
Radii:
 Radius for Br used is    4.1952 Bohr (=   2.2200 Ang.)
 Radius for C  used is    3.8550 Bohr (=   2.0400 Ang.)
 Radius for Cu used is    3.1747 Bohr (=   1.6800 Ang.)
 Radius for H  used is    2.4944 Bohr (=   1.3200 Ang.)
 Radius for N  used is    3.5149 Bohr (=   1.8600 Ang.)
 Radius for O  used is    3.4469 Bohr (=   1.8240 Ang.)
Calculating surface                               ...        done! (  0.0s)
GEPOL surface points                              ...         3990
GEPOL Volume                                      ...    4911.0967
GEPOL Surface-area                                ...    2192.6172
Calculating surface distance matrix               ...        done! (  0.1s)
Performing Cholesky decomposition & store         ...        done! (  0.8s)
Overall time for CPCM initialization              ...                 1.0s
--------------
SCF ITERATIONS
--------------
ITER       Energy         Delta-E        Max-DP      RMS-DP      [F,P]     Damp
               ***  Starting incremental Fock matrix formation  ***
  0  -5980.6640387965   0.000000000000 0.00047192  0.00000363  0.0000001 0.7000
                 **** Energy Check signals convergence ****

               *****************************************************
               *                     SUCCESS                       *
               *           SCF CONVERGED AFTER   1 CYCLES          *
               *****************************************************


----------------
TOTAL SCF ENERGY
----------------

Total Energy       :        -5980.66403880 Eh         -162742.14215 eV

Components:
Nuclear Repulsion  :         7497.81069137 Eh          204025.80138 eV
Electronic Energy  :       -13478.47473017 Eh         -366767.94353 eV
One Electron Energy:       -23255.34202610 Eh         -632810.02797 eV
Two Electron Energy:         9776.86729593 Eh          266042.08444 eV
CPCM Dielectric    :           -0.09623241 Eh              -2.61862 eV

Virial components:
Potential Energy   :       -11948.69934128 Eh         -325140.63891 eV
Kinetic Energy     :         5968.03530248 Eh          162398.49676 eV
Virial Ratio       :            2.00211606


DFT components:
N(Alpha)           :      181.999712304544 electrons
N(Beta)            :      181.999712304544 electrons
N(Total)           :      363.999424609088 electrons
E(XC)              :     -415.368446815318 Eh       
DFET-embed. en.    :        0.000000000000 Eh       
CPCM Solvation Model Properties:
Surface-charge          :            0.94879539
Charge-correction       :           -0.00483741 Eh              -0.13163 eV
Free-energy (cav+disp)  :  This term is not implemented in the current solvation scheme

---------------
SCF CONVERGENCE
---------------

  Last Energy change         ...   -8.2964e-09  Tolerance :   1.0000e-08
  Last MAX-Density change    ...    2.1180e-04  Tolerance :   1.0000e-07
  Last RMS-Density change    ...    1.6078e-06  Tolerance :   5.0000e-09
  Last DIIS Error            ...    5.0918e-08  Tolerance :   5.0000e-07

             **** THE GBW FILE WAS UPDATED (CWMHSQPVYVHHDK-QJPJQTDYNZXKQF_0_0-FullTZ.gbw) ****
             **** DENSITY CWMHSQPVYVHHDK-QJPJQTDYNZXKQF_0_0-FullTZ.scfp WAS UPDATED ****
             **** ENERGY FILE WAS UPDATED (CWMHSQPVYVHHDK-QJPJQTDYNZXKQF_0_0-FullTZ.en.tmp) ****
             **** THE GBW FILE WAS UPDATED (CWMHSQPVYVHHDK-QJPJQTDYNZXKQF_0_0-FullTZ.gbw) ****
             **** DENSITY CWMHSQPVYVHHDK-QJPJQTDYNZXKQF_0_0-FullTZ.scfp WAS UPDATED ****
----------------
ORBITAL ENERGIES
----------------

  NO   OCC          E(Eh)            E(eV) 
   0   2.0000    -480.878821    -13085.3780 
   1   2.0000    -321.324839     -8743.6934 
   2   2.0000     -61.943367     -1685.5647 
   3   2.0000     -55.897635     -1521.0520 
   4   2.0000     -55.894252     -1520.9599 
   5   2.0000     -55.893465     -1520.9385 
   6   2.0000     -38.292106     -1041.9812 
   7   2.0000     -33.614649      -914.7011 
   8   2.0000     -33.614266      -914.6907 
   9   2.0000     -33.613929      -914.6815 
  10   2.0000     -18.780673      -511.0481 
  11   2.0000     -13.946800      -379.5117 
  12   2.0000     -13.941125      -379.3573 
  13   2.0000      -9.956897      -270.9409 
  14   2.0000      -9.952655      -270.8255 
  15   2.0000      -9.937331      -270.4085 
  16   2.0000      -9.913035      -269.7474 
  17   2.0000      -9.912777      -269.7404 
  18   2.0000      -9.908471      -269.6232 
  19   2.0000      -9.904864      -269.5250 
  20   2.0000      -9.900395      -269.4034 
  21   2.0000      -9.898975      -269.3648 
  22   2.0000      -9.896995      -269.3109 
  23   2.0000      -9.894607      -269.2459 
  24   2.0000      -9.894428      -269.2411 
  25   2.0000      -9.892183      -269.1800 
  26   2.0000      -9.892149      -269.1791 
  27   2.0000      -9.891423      -269.1593 
  28   2.0000      -9.891264      -269.1550 
  29   2.0000      -9.890954      -269.1465 
  30   2.0000      -9.890540      -269.1353 
  31   2.0000      -9.890157      -269.1249 
  32   2.0000      -9.887901      -269.0635 
  33   2.0000      -9.886982      -269.0385 
  34   2.0000      -9.886587      -269.0277 
  35   2.0000      -9.886548      -269.0266 
  36   2.0000      -9.886364      -269.0216 
  37   2.0000      -9.886264      -269.0189 
  38   2.0000      -9.885452      -268.9968 
  39   2.0000      -9.885405      -268.9955 
  40   2.0000      -9.885199      -268.9899 
  41   2.0000      -9.884782      -268.9786 
  42   2.0000      -9.883307      -268.9385 
  43   2.0000      -9.882350      -268.9124 
  44   2.0000      -9.881838      -268.8985 
  45   2.0000      -9.881636      -268.8930 
  46   2.0000      -9.881248      -268.8824 
  47   2.0000      -9.881224      -268.8818 
  48   2.0000      -9.879081      -268.8235 
  49   2.0000      -9.872758      -268.6514 
  50   2.0000      -9.862568      -268.3741 
  51   2.0000      -9.860784      -268.3256 
  52   2.0000      -9.859624      -268.2940 
  53   2.0000      -9.859014      -268.2774 
  54   2.0000      -8.466683      -230.3902 
  55   2.0000      -6.350952      -172.8182 
  56   2.0000      -6.339773      -172.5140 
  57   2.0000      -6.337293      -172.4465 
  58   2.0000      -4.080769      -111.0434 
  59   2.0000      -2.622431       -71.3600 
  60   2.0000      -2.619266       -71.2739 
  61   2.0000      -2.615330       -71.1668 
  62   2.0000      -2.556219       -69.5583 
  63   2.0000      -2.554287       -69.5057 
  64   2.0000      -2.552387       -69.4540 
  65   2.0000      -2.543925       -69.2237 
  66   2.0000      -2.543860       -69.2220 
  67   2.0000      -0.991412       -26.9777 
  68   2.0000      -0.835106       -22.7244 
  69   2.0000      -0.814568       -22.1655 
  70   2.0000      -0.801766       -21.8172 
  71   2.0000      -0.783904       -21.3311 
  72   2.0000      -0.776295       -21.1241 
  73   2.0000      -0.773669       -21.0526 
  74   2.0000      -0.757252       -20.6059 
  75   2.0000      -0.745303       -20.2807 
  76   2.0000      -0.735469       -20.0131 
  77   2.0000      -0.726152       -19.7596 
  78   2.0000      -0.700334       -19.0571 
  79   2.0000      -0.693951       -18.8834 
  80   2.0000      -0.690506       -18.7896 
  81   2.0000      -0.682437       -18.5701 
  82   2.0000      -0.680131       -18.5073 
  83   2.0000      -0.675104       -18.3705 
  84   2.0000      -0.668427       -18.1888 
  85   2.0000      -0.661655       -18.0045 
  86   2.0000      -0.649550       -17.6752 
  87   2.0000      -0.648221       -17.6390 
  88   2.0000      -0.641523       -17.4567 
  89   2.0000      -0.627481       -17.0746 
  90   2.0000      -0.622325       -16.9343 
  91   2.0000      -0.603863       -16.4320 
  92   2.0000      -0.564291       -15.3551 
  93   2.0000      -0.561617       -15.2824 
  94   2.0000      -0.556785       -15.1509 
  95   2.0000      -0.550551       -14.9813 
  96   2.0000      -0.548123       -14.9152 
  97   2.0000      -0.538472       -14.6526 
  98   2.0000      -0.534470       -14.5437 
  99   2.0000      -0.533566       -14.5191 
 100   2.0000      -0.529746       -14.4151 
 101   2.0000      -0.516799       -14.0628 
 102   2.0000      -0.515872       -14.0376 
 103   2.0000      -0.496815       -13.5190 
 104   2.0000      -0.489109       -13.3093 
 105   2.0000      -0.488378       -13.2894 
 106   2.0000      -0.465148       -12.6573 
 107   2.0000      -0.461987       -12.5713 
 108   2.0000      -0.453272       -12.3341 
 109   2.0000      -0.444938       -12.1074 
 110   2.0000      -0.443867       -12.0782 
 111   2.0000      -0.441757       -12.0208 
 112   2.0000      -0.429352       -11.6833 
 113   2.0000      -0.424982       -11.5643 
 114   2.0000      -0.421709       -11.4753 
 115   2.0000      -0.417466       -11.3598 
 116   2.0000      -0.409219       -11.1354 
 117   2.0000      -0.408754       -11.1228 
 118   2.0000      -0.405594       -11.0368 
 119   2.0000      -0.401144       -10.9157 
 120   2.0000      -0.396936       -10.8012 
 121   2.0000      -0.394870       -10.7450 
 122   2.0000      -0.393085       -10.6964 
 123   2.0000      -0.391042       -10.6408 
 124   2.0000      -0.388665       -10.5761 
 125   2.0000      -0.381480       -10.3806 
 126   2.0000      -0.377335       -10.2678 
 127   2.0000      -0.372554       -10.1377 
 128   2.0000      -0.371126       -10.0988 
 129   2.0000      -0.368148       -10.0178 
 130   2.0000      -0.367207        -9.9922 
 131   2.0000      -0.364481        -9.9180 
 132   2.0000      -0.362707        -9.8698 
 133   2.0000      -0.359555        -9.7840 
 134   2.0000      -0.358539        -9.7563 
 135   2.0000      -0.354959        -9.6589 
 136   2.0000      -0.346237        -9.4216 
 137   2.0000      -0.342705        -9.3255 
 138   2.0000      -0.338814        -9.2196 
 139   2.0000      -0.332760        -9.0549 
 140   2.0000      -0.329938        -8.9781 
 141   2.0000      -0.326251        -8.8777 
 142   2.0000      -0.325310        -8.8521 
 143   2.0000      -0.321685        -8.7535 
 144   2.0000      -0.321446        -8.7470 
 145   2.0000      -0.319421        -8.6919 
 146   2.0000      -0.310985        -8.4623 
 147   2.0000      -0.310258        -8.4425 
 148   2.0000      -0.305251        -8.3063 
 149   2.0000      -0.302120        -8.2211 
 150   2.0000      -0.297094        -8.0843 
 151   2.0000      -0.295398        -8.0382 
 152   2.0000      -0.292228        -7.9519 
 153   2.0000      -0.290097        -7.8939 
 154   2.0000      -0.289204        -7.8696 
 155   2.0000      -0.287023        -7.8103 
 156   2.0000      -0.282966        -7.6999 
 157   2.0000      -0.280473        -7.6321 
 158   2.0000      -0.279599        -7.6083 
 159   2.0000      -0.273257        -7.4357 
 160   2.0000      -0.269786        -7.3413 
 161   2.0000      -0.260125        -7.0784 
 162   2.0000      -0.245306        -6.6751 
 163   2.0000      -0.238481        -6.4894 
 164   2.0000      -0.235906        -6.4193 
 165   2.0000      -0.234105        -6.3703 
 166   2.0000      -0.230818        -6.2809 
 167   2.0000      -0.224751        -6.1158 
 168   2.0000      -0.218355        -5.9417 
 169   2.0000      -0.216313        -5.8862 
 170   2.0000      -0.212773        -5.7898 
 171   2.0000      -0.207175        -5.6375 
 172   2.0000      -0.199498        -5.4286 
 173   2.0000      -0.198506        -5.4016 
 174   2.0000      -0.188677        -5.1342 
 175   2.0000      -0.185906        -5.0588 
 176   2.0000      -0.182157        -4.9567 
 177   2.0000      -0.179913        -4.8957 
 178   2.0000      -0.172222        -4.6864 
 179   2.0000      -0.148046        -4.0285 
 180   2.0000      -0.132261        -3.5990 
 181   2.0000      -0.111463        -3.0331 
 182   0.0000      -0.057524        -1.5653 
 183   0.0000      -0.054188        -1.4745 
 184   0.0000      -0.047751        -1.2994 
 185   0.0000      -0.043387        -1.1806 
 186   0.0000      -0.038314        -1.0426 
 187   0.0000      -0.035185        -0.9574 
 188   0.0000      -0.032775        -0.8919 
 189   0.0000      -0.029142        -0.7930 
 190   0.0000      -0.022467        -0.6114 
 191   0.0000      -0.013592        -0.3698 
 192   0.0000      -0.010443        -0.2842 
 193   0.0000       0.002584         0.0703 
 194   0.0000       0.010853         0.2953 
 195   0.0000       0.016206         0.4410 
 196   0.0000       0.023520         0.6400 
 197   0.0000       0.035203         0.9579 
 198   0.0000       0.042281         1.1505 
 199   0.0000       0.046119         1.2550 
 200   0.0000       0.050954         1.3865 
 201   0.0000       0.055826         1.5191 
 202   0.0000       0.057781         1.5723 
 203   0.0000       0.061729         1.6797 
 204   0.0000       0.064718         1.7611 
 205   0.0000       0.067229         1.8294 
 206   0.0000       0.069915         1.9025 
 207   0.0000       0.075104         2.0437 
 208   0.0000       0.077604         2.1117 
 209   0.0000       0.080277         2.1845 
 210   0.0000       0.083432         2.2703 
 211   0.0000       0.086897         2.3646 
 212   0.0000       0.088353         2.4042 
 213   0.0000       0.089748         2.4422 
 214   0.0000       0.091783         2.4975 
 215   0.0000       0.096683         2.6309 
 216   0.0000       0.097716         2.6590 
 217   0.0000       0.100567         2.7366 
 218   0.0000       0.101430         2.7600 
 219   0.0000       0.104893         2.8543 
 220   0.0000       0.107132         2.9152 
 221   0.0000       0.108914         2.9637 
 222   0.0000       0.110826         3.0157 
 223   0.0000       0.112664         3.0657 
 224   0.0000       0.115058         3.1309 
 225   0.0000       0.118541         3.2257 
 226   0.0000       0.120328         3.2743 
 227   0.0000       0.121173         3.2973 
 228   0.0000       0.123308         3.3554 
 229   0.0000       0.124667         3.3924 
 230   0.0000       0.127690         3.4746 
 231   0.0000       0.132427         3.6035 
 232   0.0000       0.135268         3.6808 
 233   0.0000       0.139061         3.7840 
 234   0.0000       0.143007         3.8914 
 235   0.0000       0.144515         3.9325 
 236   0.0000       0.147983         4.0268 
 237   0.0000       0.149362         4.0643 
 238   0.0000       0.156411         4.2562 
 239   0.0000       0.158188         4.3045 
 240   0.0000       0.159238         4.3331 
 241   0.0000       0.161036         4.3820 
 242   0.0000       0.166808         4.5391 
 243   0.0000       0.167327         4.5532 
 244   0.0000       0.170806         4.6479 
 245   0.0000       0.174998         4.7619 
 246   0.0000       0.176497         4.8027 
 247   0.0000       0.180700         4.9171 
 248   0.0000       0.183329         4.9886 
 249   0.0000       0.185104         5.0369 
 250   0.0000       0.189753         5.1634 
 251   0.0000       0.191067         5.1992 
 252   0.0000       0.192955         5.2506 
 253   0.0000       0.194708         5.2983 
 254   0.0000       0.196561         5.3487 
 255   0.0000       0.197330         5.3696 
 256   0.0000       0.199433         5.4268 
 257   0.0000       0.202961         5.5228 
 258   0.0000       0.206537         5.6201 
 259   0.0000       0.208181         5.6649 
 260   0.0000       0.210092         5.7169 
 261   0.0000       0.210785         5.7358 
 262   0.0000       0.212841         5.7917 
 263   0.0000       0.214960         5.8494 
 264   0.0000       0.217934         5.9303 
 265   0.0000       0.218772         5.9531 
 266   0.0000       0.221534         6.0282 
 267   0.0000       0.221968         6.0401 
 268   0.0000       0.222490         6.0543 
 269   0.0000       0.225537         6.1372 
 270   0.0000       0.228598         6.2205 
 271   0.0000       0.230922         6.2837 
 272   0.0000       0.232431         6.3248 
 273   0.0000       0.235128         6.3982 
 274   0.0000       0.237621         6.4660 
 275   0.0000       0.242472         6.5980 
 276   0.0000       0.243865         6.6359 
 277   0.0000       0.245980         6.6935 
 278   0.0000       0.247593         6.7373 
 279   0.0000       0.250162         6.8073 
 280   0.0000       0.253903         6.9090 
 281   0.0000       0.255729         6.9587 
 282   0.0000       0.257373         7.0035 
 283   0.0000       0.258519         7.0347 
 284   0.0000       0.258882         7.0445 
 285   0.0000       0.262134         7.1330 
 286   0.0000       0.266978         7.2648 
 287   0.0000       0.267600         7.2818 
 288   0.0000       0.269332         7.3289 
 289   0.0000       0.270847         7.3701 
 290   0.0000       0.275404         7.4941 
 291   0.0000       0.276625         7.5273 
 292   0.0000       0.279697         7.6109 
 293   0.0000       0.282187         7.6787 
 294   0.0000       0.284123         7.7314 
 295   0.0000       0.287282         7.8173 
 296   0.0000       0.289350         7.8736 
 297   0.0000       0.293109         7.9759 
 298   0.0000       0.295061         8.0290 
 299   0.0000       0.295942         8.0530 
 300   0.0000       0.300668         8.1816 
 301   0.0000       0.301691         8.2094 
 302   0.0000       0.303233         8.2514 
 303   0.0000       0.306307         8.3350 
 304   0.0000       0.309489         8.4216 
 305   0.0000       0.310323         8.4443 
 306   0.0000       0.312083         8.4922 
 307   0.0000       0.314438         8.5563 
 308   0.0000       0.316897         8.6232 
 309   0.0000       0.319446         8.6926 
 310   0.0000       0.321244         8.7415 
 311   0.0000       0.323001         8.7893 
 312   0.0000       0.325037         8.8447 
 313   0.0000       0.326679         8.8894 
 314   0.0000       0.327705         8.9173 
 315   0.0000       0.331954         9.0329 
 316   0.0000       0.334112         9.0916 
 317   0.0000       0.337781         9.1915 
 318   0.0000       0.338532         9.2119 
 319   0.0000       0.339544         9.2395 
 320   0.0000       0.342901         9.3308 
 321   0.0000       0.345168         9.3925 
 322   0.0000       0.347677         9.4608 
 323   0.0000       0.350002         9.5240 
 324   0.0000       0.352376         9.5886 
 325   0.0000       0.354297         9.6409 
 326   0.0000       0.356152         9.6914 
 327   0.0000       0.358122         9.7450 
 328   0.0000       0.359840         9.7917 
 329   0.0000       0.361710         9.8426 
 330   0.0000       0.363776         9.8988 
 331   0.0000       0.368308        10.0222 
 332   0.0000       0.370402        10.0791 
 333   0.0000       0.372868        10.1462 
 334   0.0000       0.373822        10.1722 
 335   0.0000       0.375753        10.2247 
 336   0.0000       0.378532        10.3004 
 337   0.0000       0.379786        10.3345 
 338   0.0000       0.381941        10.3931 
 339   0.0000       0.383420        10.4334 
 340   0.0000       0.387047        10.5321 
 341   0.0000       0.388993        10.5850 
 342   0.0000       0.392631        10.6840 
 343   0.0000       0.394691        10.7401 
 344   0.0000       0.396482        10.7888 
 345   0.0000       0.397779        10.8241 
 346   0.0000       0.400171        10.8892 
 347   0.0000       0.404017        10.9939 
 348   0.0000       0.406280        11.0554 
 349   0.0000       0.407851        11.0982 
 350   0.0000       0.409903        11.1540 
 351   0.0000       0.410924        11.1818 
 352   0.0000       0.412405        11.2221 
 353   0.0000       0.414415        11.2768 
 354   0.0000       0.416843        11.3429 
 355   0.0000       0.417395        11.3579 
 356   0.0000       0.421380        11.4663 
 357   0.0000       0.422933        11.5086 
 358   0.0000       0.424447        11.5498 
 359   0.0000       0.427956        11.6453 
 360   0.0000       0.428645        11.6640 
 361   0.0000       0.432576        11.7710 
 362   0.0000       0.432772        11.7763 
 363   0.0000       0.434192        11.8150 
 364   0.0000       0.438457        11.9310 
 365   0.0000       0.440532        11.9875 
 366   0.0000       0.443322        12.0634 
 367   0.0000       0.444409        12.0930 
 368   0.0000       0.447595        12.1797 
 369   0.0000       0.447883        12.1875 
 370   0.0000       0.450037        12.2461 
 371   0.0000       0.454314        12.3625 
 372   0.0000       0.456348        12.4179 
 373   0.0000       0.457160        12.4400 
 374   0.0000       0.461209        12.5501 
 375   0.0000       0.463308        12.6073 
 376   0.0000       0.465507        12.6671 
 377   0.0000       0.466394        12.6912 
 378   0.0000       0.471479        12.8296 
 379   0.0000       0.472964        12.8700 
 380   0.0000       0.474410        12.9094 
 381   0.0000       0.476180        12.9575 
 382   0.0000       0.476750        12.9730 
 383   0.0000       0.480994        13.0885 
 384   0.0000       0.483759        13.1638 
 385   0.0000       0.486882        13.2487 
 386   0.0000       0.490743        13.3538 
 387   0.0000       0.491803        13.3826 
 388   0.0000       0.493802        13.4370 
 389   0.0000       0.496229        13.5031 
 390   0.0000       0.498920        13.5763 
 391   0.0000       0.499415        13.5898 
 392   0.0000       0.503398        13.6982 
 393   0.0000       0.505753        13.7622 
 394   0.0000       0.510056        13.8793 
 395   0.0000       0.511056        13.9065 
 396   0.0000       0.515179        14.0187 
 397   0.0000       0.519126        14.1261 
 398   0.0000       0.520666        14.1680 
 399   0.0000       0.524312        14.2672 
 400   0.0000       0.525760        14.3067 
 401   0.0000       0.526572        14.3288 
 402   0.0000       0.531154        14.4534 
 403   0.0000       0.532436        14.4883 
 404   0.0000       0.536510        14.5992 
 405   0.0000       0.539721        14.6866 
 406   0.0000       0.542181        14.7535 
 407   0.0000       0.542962        14.7747 
 408   0.0000       0.545896        14.8546 
 409   0.0000       0.548648        14.9295 
 410   0.0000       0.552443        15.0327 
 411   0.0000       0.553293        15.0559 
 412   0.0000       0.560012        15.2387 
 413   0.0000       0.562583        15.3087 
 414   0.0000       0.567788        15.4503 
 415   0.0000       0.570022        15.5111 
 416   0.0000       0.578754        15.7487 
 417   0.0000       0.579794        15.7770 
 418   0.0000       0.580652        15.8003 
 419   0.0000       0.584389        15.9020 
 420   0.0000       0.589886        16.0516 
 421   0.0000       0.591240        16.0884 
 422   0.0000       0.597219        16.2512 
 423   0.0000       0.601105        16.3569 
 424   0.0000       0.603343        16.4178 
 425   0.0000       0.605958        16.4890 
 426   0.0000       0.611012        16.6265 
 427   0.0000       0.612467        16.6661 
 428   0.0000       0.616168        16.7668 
 429   0.0000       0.623711        16.9720 
 430   0.0000       0.625473        17.0200 
 431   0.0000       0.631501        17.1840 
 432   0.0000       0.633112        17.2279 
 433   0.0000       0.639153        17.3923 
 434   0.0000       0.640344        17.4246 
 435   0.0000       0.644688        17.5429 
 436   0.0000       0.648650        17.6507 
 437   0.0000       0.652191        17.7470 
 438   0.0000       0.654630        17.8134 
 439   0.0000       0.655997        17.8506 
 440   0.0000       0.660896        17.9839 
 441   0.0000       0.663576        18.0568 
 442   0.0000       0.665793        18.1172 
 443   0.0000       0.667673        18.1683 
 444   0.0000       0.671433        18.2706 
 445   0.0000       0.676811        18.4170 
 446   0.0000       0.679251        18.4833 
 447   0.0000       0.681018        18.5314 
 448   0.0000       0.681315        18.5395 
 449   0.0000       0.685795        18.6614 
 450   0.0000       0.687463        18.7068 
 451   0.0000       0.690868        18.7995 
 452   0.0000       0.693831        18.8801 
 453   0.0000       0.696289        18.9470 
 454   0.0000       0.697188        18.9715 
 455   0.0000       0.703430        19.1413 
 456   0.0000       0.705512        19.1980 
 457   0.0000       0.709606        19.3094 
 458   0.0000       0.711322        19.3561 
 459   0.0000       0.717614        19.5273 
 460   0.0000       0.721081        19.6216 
 461   0.0000       0.724181        19.7060 
 462   0.0000       0.724701        19.7201 
 463   0.0000       0.730823        19.8867 
 464   0.0000       0.734630        19.9903 
 465   0.0000       0.739828        20.1317 
 466   0.0000       0.741425        20.1752 
 467   0.0000       0.747903        20.3515 
 468   0.0000       0.750876        20.4324 
 469   0.0000       0.760318        20.6893 
 470   0.0000       0.761782        20.7291 
 471   0.0000       0.764106        20.7924 
 472   0.0000       0.768642        20.9158 
 473   0.0000       0.770867        20.9764 
 474   0.0000       0.775543        21.1036 
 475   0.0000       0.778494        21.1839 
 476   0.0000       0.779294        21.2057 
 477   0.0000       0.784176        21.3385 
 478   0.0000       0.790876        21.5208 
 479   0.0000       0.797813        21.7096 
 480   0.0000       0.803064        21.8525 
 481   0.0000       0.806509        21.9462 
 482   0.0000       0.810556        22.0563 
 483   0.0000       0.813071        22.1248 
 484   0.0000       0.819826        22.3086 
 485   0.0000       0.825973        22.4759 
 486   0.0000       0.828578        22.5468 
 487   0.0000       0.839183        22.8353 
 488   0.0000       0.843761        22.9599 
 489   0.0000       0.854331        23.2475 
 490   0.0000       0.861052        23.4304 
 491   0.0000       0.861696        23.4479 
 492   0.0000       0.867049        23.5936 
 493   0.0000       0.880502        23.9597 
 494   0.0000       0.883725        24.0474 
 495   0.0000       0.893016        24.3002 
 496   0.0000       0.897045        24.4098 
 497   0.0000       0.906425        24.6651 
 498   0.0000       0.908542        24.7227 
 499   0.0000       0.915997        24.9255 
 500   0.0000       0.923930        25.1414 
 501   0.0000       0.931890        25.3580 
 502   0.0000       0.936384        25.4803 
 503   0.0000       0.949148        25.8276 
 504   0.0000       0.968527        26.3550 
 505   0.0000       0.975776        26.5522 
 506   0.0000       0.987164        26.8621 
 507   0.0000       1.013882        27.5891 
 508   0.0000       1.018059        27.7028 
 509   0.0000       1.032949        28.1080 
 510   0.0000       1.052536        28.6410 
 511   0.0000       1.058316        28.7982 
 512   0.0000       1.139047        30.9950 
 513   0.0000       1.147892        31.2357 
 514   0.0000       1.176503        32.0143 
 515   0.0000       1.199079        32.6286 
 516   0.0000       1.203663        32.7533 
 517   0.0000       1.215306        33.0702 
 518   0.0000       1.221085        33.2274 
 519   0.0000       1.225138        33.3377 
 520   0.0000       1.230090        33.4725 
 521   0.0000       1.237487        33.6737 
 522   0.0000       1.239953        33.7408 
 523   0.0000       1.254004        34.1232 
 524   0.0000       1.257848        34.2278 
 525   0.0000       1.268138        34.5078 
 526   0.0000       1.271771        34.6066 
 527   0.0000       1.275984        34.7213 
 528   0.0000       1.286803        35.0157 
 529   0.0000       1.288246        35.0549 
 530   0.0000       1.293820        35.2066 
 531   0.0000       1.300551        35.3898 
 532   0.0000       1.300972        35.4013 
 533   0.0000       1.308378        35.6028 
 534   0.0000       1.311903        35.6987 
 535   0.0000       1.316911        35.8350 
 536   0.0000       1.319789        35.9133 
 537   0.0000       1.321968        35.9726 
 538   0.0000       1.323246        36.0074 
 539   0.0000       1.327795        36.1311 
 540   0.0000       1.329567        36.1794 
 541   0.0000       1.334662        36.3180 
 542   0.0000       1.337472        36.3945 
 543   0.0000       1.342337        36.5269 
 544   0.0000       1.345327        36.6082 
 545   0.0000       1.348131        36.6845 
 546   0.0000       1.351443        36.7746 
 547   0.0000       1.355373        36.8816 
 548   0.0000       1.357463        36.9384 
 549   0.0000       1.358933        36.9785 
 550   0.0000       1.361084        37.0370 
 551   0.0000       1.365897        37.1679 
 552   0.0000       1.369036        37.2534 
 553   0.0000       1.370884        37.3036 
 554   0.0000       1.371188        37.3119 
 555   0.0000       1.373366        37.3712 
 556   0.0000       1.375655        37.4335 
 557   0.0000       1.377154        37.4743 
 558   0.0000       1.379462        37.5371 
 559   0.0000       1.382525        37.6204 
 560   0.0000       1.384155        37.6648 
 561   0.0000       1.386394        37.7257 
 562   0.0000       1.387588        37.7582 
 563   0.0000       1.389266        37.8038 
 564   0.0000       1.392885        37.9023 
 565   0.0000       1.395405        37.9709 
 566   0.0000       1.397249        38.0211 
 567   0.0000       1.400567        38.1114 
 568   0.0000       1.403573        38.1932 
 569   0.0000       1.405923        38.2571 
 570   0.0000       1.409717        38.3603 
 571   0.0000       1.410576        38.3837 
 572   0.0000       1.418179        38.5906 
 573   0.0000       1.419534        38.6275 
 574   0.0000       1.423704        38.7409 
 575   0.0000       1.428056        38.8594 
 576   0.0000       1.429501        38.8987 
 577   0.0000       1.432770        38.9876 
 578   0.0000       1.435029        39.0491 
 579   0.0000       1.439232        39.1635 
 580   0.0000       1.442387        39.2493 
 581   0.0000       1.447367        39.3849 
 582   0.0000       1.456205        39.6253 
 583   0.0000       1.456974        39.6463 
 584   0.0000       1.459180        39.7063 
 585   0.0000       1.463666        39.8284 
 586   0.0000       1.466772        39.9129 
 587   0.0000       1.471242        40.0345 
 588   0.0000       1.472032        40.0560 
 589   0.0000       1.476872        40.1877 
 590   0.0000       1.478942        40.2441 
 591   0.0000       1.481114        40.3032 
 592   0.0000       1.482212        40.3330 
 593   0.0000       1.485122        40.4122 
 594   0.0000       1.490308        40.5534 
 595   0.0000       1.492536        40.6140 
 596   0.0000       1.493037        40.6276 
 597   0.0000       1.497426        40.7470 
 598   0.0000       1.500544        40.8319 
 599   0.0000       1.502771        40.8925 
 600   0.0000       1.502963        40.8977 
 601   0.0000       1.506325        40.9892 
 602   0.0000       1.508402        41.0457 
 603   0.0000       1.510078        41.0913 
 604   0.0000       1.513429        41.1825 
 605   0.0000       1.514661        41.2160 
 606   0.0000       1.519002        41.3341 
 607   0.0000       1.522265        41.4229 
 608   0.0000       1.523720        41.4625 
[...]
176:   1463.28   0.000563    2.85  0.000120  ( 0.009501  0.004409  0.003222)
177:   1465.63   0.013361   67.52  0.002845  ( 0.027483  0.040213 -0.021735)
178:   1474.93   0.048349  244.34  0.010230  ( 0.084007  0.047508 -0.030257)
179:   1475.93   0.060151  303.98  0.012718  (-0.044521 -0.101728 -0.019681)
180:   1483.29   0.062806  317.39  0.013213  ( 0.069971 -0.084859 -0.033414)
181:   1491.02   0.002515   12.71  0.000526  ( 0.005790  0.022006  0.002926)
182:   1499.32   0.010517   53.15  0.002189  (-0.039447 -0.011903  0.022162)
183:   1500.72   0.024375  123.18  0.005069  ( 0.056307  0.026410 -0.034651)
184:   1503.88   0.018210   92.03  0.003779  (-0.015560 -0.044210  0.039776)
185:   1512.11   0.016196   81.85  0.003342  (-0.054669 -0.018612 -0.002699)
186:   1513.61   0.006813   34.43  0.001405  ( 0.022322  0.003926  0.029849)
187:   1527.41   0.025619  129.47  0.005234  (-0.053870 -0.035405  0.032844)
188:   1533.79   0.000496    2.51  0.000101  (-0.009029  0.000153  0.004396)
189:   1538.90   0.013412   67.78  0.002720  (-0.043151 -0.018027 -0.023083)
190:   1550.23   0.027562  139.29  0.005548  ( 0.063438  0.037943  0.009179)
191:   1562.83   0.003498   17.68  0.000698  (-0.022258 -0.012226  0.007317)
192:   1566.42   0.005569   28.14  0.001109  ( 0.029600  0.015195 -0.001524)
193:   1568.80   0.018042   91.17  0.003589  (-0.053355  0.013156 -0.023852)
194:   1573.06   0.000461    2.33  0.000091  (-0.003687 -0.008284  0.003026)
195:   1579.78   0.005369   27.13  0.001061  ( 0.032120  0.004284 -0.003249)
196:   1580.71   0.027247  137.69  0.005379  ( 0.060917  0.016821 -0.037218)
197:   1592.00   0.010599   53.56  0.002078  ( 0.022975 -0.021202  0.033169)
198:   1597.81   0.000042    0.21  0.000008  ( 0.002445  0.000229  0.001451)
199:   1609.67   0.002972   15.02  0.000576  ( 0.006492  0.005956 -0.022327)
200:   2906.68   0.019305   97.56  0.002073  (-0.012554 -0.013731  0.041551)
201:   2968.53   0.012052   60.90  0.001267  (-0.010407  0.030984  0.014093)
202:   3021.99   0.007281   36.79  0.000752  (-0.026218 -0.007926  0.001274)
203:   3024.81   0.000364    1.84  0.000038  (-0.003522  0.004905  0.001061)
204:   3034.71   0.010579   53.46  0.001088  (-0.012130  0.030144  0.005661)
205:   3036.32   0.004716   23.83  0.000485  (-0.018706 -0.009222  0.007055)
206:   3036.60   0.006030   30.47  0.000620  ( 0.001922  0.013727 -0.020677)
207:   3038.00   0.000143    0.72  0.000015  (-0.003364  0.000176 -0.001834)
208:   3040.06   0.004738   23.95  0.000486  (-0.003891 -0.004261 -0.021286)
209:   3041.00   0.000481    2.43  0.000049  ( 0.000689 -0.006869  0.001292)
210:   3044.60   0.021775  110.04  0.002232  (-0.044259 -0.015782 -0.004904)
211:   3045.17   0.007667   38.75  0.000786  ( 0.023843  0.011135 -0.009653)
212:   3045.80   0.000424    2.14  0.000043  (-0.002851 -0.000955  0.005867)
213:   3047.77   0.003855   19.48  0.000395  ( 0.014557  0.002405  0.013305)
214:   3050.45   0.013543   68.44  0.001385  ( 0.014598  0.009092  0.033010)
215:   3050.93   0.000759    3.84  0.000078  (-0.002052 -0.005300  0.006733)
216:   3052.86   0.016231   82.02  0.001659  ( 0.018801 -0.034959 -0.009138)
217:   3054.34   0.002876   14.54  0.000294  ( 0.013113  0.002048  0.010851)
218:   3055.54   0.007328   37.03  0.000748  (-0.018108  0.011581 -0.016922)
219:   3057.26   0.022462  113.52  0.002293  (-0.046436 -0.007160  0.009232)
220:   3058.48   0.013124   66.32  0.001339  (-0.034600  0.008598  0.008244)
221:   3059.08   0.014586   73.71  0.001488  ( 0.006235  0.037400 -0.007091)
222:   3063.58   0.014829   74.94  0.001510  ( 0.029590  0.017377 -0.018248)
223:   3064.37   0.015233   76.98  0.001551  (-0.013809  0.015217 -0.033600)
224:   3065.93   0.003150   15.92  0.000321  ( 0.003963 -0.012811  0.011868)
225:   3067.78   0.012618   63.77  0.001284  (-0.008396  0.008551 -0.033763)
226:   3090.04   0.000978    4.94  0.000099  ( 0.009774 -0.000523 -0.001731)
227:   3093.76   0.001625    8.21  0.000164  (-0.001055 -0.007896  0.010024)
228:   3093.82   0.001986   10.04  0.000200  (-0.012812  0.005603  0.002189)
229:   3100.53   0.000836    4.23  0.000084  (-0.007612  0.002403 -0.004524)
230:   3108.97   0.000925    4.67  0.000093  ( 0.002330 -0.005952 -0.007207)

* The epsilon (eps) is given for a Dirac delta lineshape.
** The dipole moment derivative (T) already includes vibrational overlap.

The first frequency considered to be a vibration is 7
The total number of vibrations considered is 224


--------------------------
THERMOCHEMISTRY AT 298.15K
--------------------------

Temperature         ... 298.15 K
Pressure            ... 1.00 atm
Total Mass          ... 711.16 AMU

Throughout the following assumptions are being made:
  (1) The electronic state is orbitally nondegenerate
  (2) There are no thermally accessible electronically excited states
  (3) Hindered rotations indicated by low frequency modes are not
      treated as such but are treated as vibrations and this may
      cause some error
  (4) All equations used are the standard statistical mechanics
      equations for an ideal gas
  (5) All vibrations are strictly harmonic

freq.      28.25  E(vib)   ...       0.55 
freq.      33.72  E(vib)   ...       0.55 
freq.      40.26  E(vib)   ...       0.54 
freq.      44.93  E(vib)   ...       0.53 
freq.      51.53  E(vib)   ...       0.52 
freq.      56.08  E(vib)   ...       0.52 
freq.      59.93  E(vib)   ...       0.51 
freq.      61.96  E(vib)   ...       0.51 
freq.      69.72  E(vib)   ...       0.50 
freq.      77.06  E(vib)   ...       0.49 
freq.      84.29  E(vib)   ...       0.48 
freq.      98.38  E(vib)   ...       0.46 
freq.     102.05  E(vib)   ...       0.46 
freq.     104.21  E(vib)   ...       0.46 
freq.     111.79  E(vib)   ...       0.45 
freq.     117.92  E(vib)   ...       0.44 
freq.     118.91  E(vib)   ...       0.44 
freq.     122.98  E(vib)   ...       0.43 
freq.     130.13  E(vib)   ...       0.43 
freq.     132.66  E(vib)   ...       0.42 
freq.     152.18  E(vib)   ...       0.40 
freq.     157.79  E(vib)   ...       0.40 
freq.     172.61  E(vib)   ...       0.38 
freq.     176.02  E(vib)   ...       0.38 
freq.     190.47  E(vib)   ...       0.36 
freq.     202.54  E(vib)   ...       0.35 
freq.     206.13  E(vib)   ...       0.35 
freq.     232.36  E(vib)   ...       0.32 
freq.     245.87  E(vib)   ...       0.31 
freq.     258.25  E(vib)   ...       0.30 
freq.     260.79  E(vib)   ...       0.30 
freq.     268.63  E(vib)   ...       0.29 
freq.     273.98  E(vib)   ...       0.28 
freq.     295.23  E(vib)   ...       0.27 
freq.     302.09  E(vib)   ...       0.26 
freq.     308.74  E(vib)   ...       0.26 
freq.     334.51  E(vib)   ...       0.24 
freq.     347.50  E(vib)   ...       0.23 
freq.     360.11  E(vib)   ...       0.22 
freq.     369.69  E(vib)   ...       0.21 
freq.     390.80  E(vib)   ...       0.20 
freq.     417.66  E(vib)   ...       0.18 
freq.     419.47  E(vib)   ...       0.18 
freq.     420.54  E(vib)   ...       0.18 
freq.     431.57  E(vib)   ...       0.18 
freq.     433.70  E(vib)   ...       0.17 
freq.     450.35  E(vib)   ...       0.17 
freq.     466.03  E(vib)   ...       0.16 
freq.     476.15  E(vib)   ...       0.15 
freq.     477.15  E(vib)   ...       0.15 
freq.     481.90  E(vib)   ...       0.15 
freq.     495.99  E(vib)   ...       0.14 
freq.     506.68  E(vib)   ...       0.14 
freq.     527.48  E(vib)   ...       0.13 
freq.     529.27  E(vib)   ...       0.13 
freq.     535.20  E(vib)   ...       0.13 
freq.     544.42  E(vib)   ...       0.12 
freq.     557.44  E(vib)   ...       0.12 
freq.     563.35  E(vib)   ...       0.11 
freq.     587.68  E(vib)   ...       0.10 
freq.     590.00  E(vib)   ...       0.10 
freq.     602.33  E(vib)   ...       0.10 
freq.     608.81  E(vib)   ...       0.10 
freq.     626.68  E(vib)   ...       0.09 
freq.     629.95  E(vib)   ...       0.09 
freq.     634.43  E(vib)   ...       0.09 
freq.     635.77  E(vib)   ...       0.09 
freq.     636.80  E(vib)   ...       0.09 
freq.     646.65  E(vib)   ...       0.09 
freq.     651.28  E(vib)   ...       0.08 
freq.     658.73  E(vib)   ...       0.08 
freq.     676.43  E(vib)   ...       0.08 
freq.     685.81  E(vib)   ...       0.07 
freq.     701.42  E(vib)   ...       0.07 
freq.     707.08  E(vib)   ...       0.07 
freq.     722.23  E(vib)   ...       0.07 
freq.     725.00  E(vib)   ...       0.06 
freq.     728.82  E(vib)   ...       0.06 
freq.     750.65  E(vib)   ...       0.06 
freq.     758.46  E(vib)   ...       0.06 
freq.     761.88  E(vib)   ...       0.06 
freq.     777.36  E(vib)   ...       0.05 
freq.     783.23  E(vib)   ...       0.05 
freq.     784.87  E(vib)   ...       0.05 
freq.     793.37  E(vib)   ...       0.05 
freq.     799.95  E(vib)   ...       0.05 
freq.     800.44  E(vib)   ...       0.05 
freq.     803.82  E(vib)   ...       0.05 
freq.     825.29  E(vib)   ...       0.04 
freq.     826.14  E(vib)   ...       0.04 
freq.     836.05  E(vib)   ...       0.04 
freq.     847.50  E(vib)   ...       0.04 
freq.     857.59  E(vib)   ...       0.04 
freq.     863.79  E(vib)   ...       0.04 
freq.     864.62  E(vib)   ...       0.04 
freq.     869.10  E(vib)   ...       0.04 
freq.     879.54  E(vib)   ...       0.04 
freq.     883.68  E(vib)   ...       0.04 
freq.     893.97  E(vib)   ...       0.03 
freq.     905.59  E(vib)   ...       0.03 
freq.     915.93  E(vib)   ...       0.03 
freq.     920.00  E(vib)   ...       0.03 
freq.     923.17  E(vib)   ...       0.03 
freq.     926.27  E(vib)   ...       0.03 
freq.     933.24  E(vib)   ...       0.03 
freq.     938.04  E(vib)   ...       0.03 
freq.     940.34  E(vib)   ...       0.03 
freq.     944.07  E(vib)   ...       0.03 
freq.     944.50  E(vib)   ...       0.03 
freq.     949.82  E(vib)   ...       0.03 
freq.     952.54  E(vib)   ...       0.03 
freq.     959.16  E(vib)   ...       0.03 
freq.     979.96  E(vib)   ...       0.02 
freq.     993.03  E(vib)   ...       0.02 
freq.     995.16  E(vib)   ...       0.02 
freq.     996.83  E(vib)   ...       0.02 
freq.    1017.74  E(vib)   ...       0.02 
freq.    1019.99  E(vib)   ...       0.02 
freq.    1029.21  E(vib)   ...       0.02 
freq.    1032.00  E(vib)   ...       0.02 
freq.    1036.11  E(vib)   ...       0.02 
freq.    1038.52  E(vib)   ...       0.02 
freq.    1051.04  E(vib)   ...       0.02 
freq.    1052.76  E(vib)   ...       0.02 
freq.    1065.49  E(vib)   ...       0.02 
freq.    1080.65  E(vib)   ...       0.02 
freq.    1083.76  E(vib)   ...       0.02 
freq.    1100.07  E(vib)   ...       0.02 
freq.    1112.26  E(vib)   ...       0.01 
freq.    1116.11  E(vib)   ...       0.01 
freq.    1126.39  E(vib)   ...       0.01 
freq.    1149.32  E(vib)   ...       0.01 
freq.    1157.06  E(vib)   ...       0.01 
freq.    1159.17  E(vib)   ...       0.01 
freq.    1165.96  E(vib)   ...       0.01 
freq.    1166.32  E(vib)   ...       0.01 
freq.    1170.11  E(vib)   ...       0.01 
freq.    1184.72  E(vib)   ...       0.01 
freq.    1188.44  E(vib)   ...       0.01 
freq.    1188.97  E(vib)   ...       0.01 
freq.    1196.86  E(vib)   ...       0.01 
freq.    1199.12  E(vib)   ...       0.01 
freq.    1213.97  E(vib)   ...       0.01 
freq.    1215.59  E(vib)   ...       0.01 
freq.    1217.09  E(vib)   ...       0.01 
freq.    1239.22  E(vib)   ...       0.01 
freq.    1249.86  E(vib)   ...       0.01 
freq.    1267.98  E(vib)   ...       0.01 
freq.    1269.63  E(vib)   ...       0.01 
freq.    1273.62  E(vib)   ...       0.01 
freq.    1278.16  E(vib)   ...       0.01 
freq.    1285.18  E(vib)   ...       0.01 
freq.    1297.21  E(vib)   ...       0.01 
freq.    1302.70  E(vib)   ...       0.01 
freq.    1310.09  E(vib)   ...       0.01 
freq.    1312.15  E(vib)   ...       0.01 
freq.    1313.86  E(vib)   ...       0.01 
freq.    1322.60  E(vib)   ...       0.01 
freq.    1324.93  E(vib)   ...       0.01 
freq.    1335.29  E(vib)   ...       0.01 
freq.    1346.66  E(vib)   ...       0.01 
freq.    1350.86  E(vib)   ...       0.01 
freq.    1353.65  E(vib)   ...       0.01 
freq.    1392.59  E(vib)   ...       0.00 
freq.    1411.38  E(vib)   ...       0.00 
freq.    1433.83  E(vib)   ...       0.00 
freq.    1443.06  E(vib)   ...       0.00 
freq.    1445.51  E(vib)   ...       0.00 
freq.    1456.04  E(vib)   ...       0.00 
freq.    1463.28  E(vib)   ...       0.00 
freq.    1465.63  E(vib)   ...       0.00 
freq.    1474.93  E(vib)   ...       0.00 
freq.    1475.93  E(vib)   ...       0.00 
freq.    1483.29  E(vib)   ...       0.00 
freq.    1491.02  E(vib)   ...       0.00 
freq.    1499.32  E(vib)   ...       0.00 
freq.    1500.72  E(vib)   ...       0.00 
freq.    1503.88  E(vib)   ...       0.00 
freq.    1512.11  E(vib)   ...       0.00 
freq.    1513.61  E(vib)   ...       0.00 
freq.    1527.41  E(vib)   ...       0.00 
freq.    1533.79  E(vib)   ...       0.00 
freq.    1538.90  E(vib)   ...       0.00 
freq.    1550.23  E(vib)   ...       0.00 
freq.    1562.83  E(vib)   ...       0.00 
freq.    1566.42  E(vib)   ...       0.00 
freq.    1568.80  E(vib)   ...       0.00 
freq.    1573.06  E(vib)   ...       0.00 
freq.    1579.78  E(vib)   ...       0.00 
freq.    1580.71  E(vib)   ...       0.00 
freq.    1592.00  E(vib)   ...       0.00 
freq.    1597.81  E(vib)   ...       0.00 
freq.    1609.67  E(vib)   ...       0.00 
freq.    2906.68  E(vib)   ...       0.00 
freq.    2968.53  E(vib)   ...       0.00 
freq.    3021.99  E(vib)   ...       0.00 
freq.    3024.81  E(vib)   ...       0.00 
freq.    3034.71  E(vib)   ...       0.00 
freq.    3036.32  E(vib)   ...       0.00 
freq.    3036.60  E(vib)   ...       0.00 
freq.    3038.00  E(vib)   ...       0.00 
freq.    3040.06  E(vib)   ...       0.00 
freq.    3041.00  E(vib)   ...       0.00 
freq.    3044.60  E(vib)   ...       0.00 
freq.    3045.17  E(vib)   ...       0.00 
freq.    3045.80  E(vib)   ...       0.00 
freq.    3047.77  E(vib)   ...       0.00 
freq.    3050.45  E(vib)   ...       0.00 
freq.    3050.93  E(vib)   ...       0.00 
freq.    3052.86  E(vib)   ...       0.00 
freq.    3054.34  E(vib)   ...       0.00 
freq.    3055.54  E(vib)   ...       0.00 
freq.    3057.26  E(vib)   ...       0.00 
freq.    3058.48  E(vib)   ...       0.00 
freq.    3059.08  E(vib)   ...       0.00 
freq.    3063.58  E(vib)   ...       0.00 
freq.    3064.37  E(vib)   ...       0.00 
freq.    3065.93  E(vib)   ...       0.00 
freq.    3067.78  E(vib)   ...       0.00 
freq.    3090.04  E(vib)   ...       0.00 
freq.    3093.76  E(vib)   ...       0.00 
freq.    3093.82  E(vib)   ...       0.00 
freq.    3100.53  E(vib)   ...       0.00 
freq.    3108.97  E(vib)   ...       0.00 

------------
INNER ENERGY
------------

The inner energy is: U= E(el) + E(ZPE) + E(vib) + E(rot) + E(trans)
    E(el)   - is the total energy from the electronic structure calculation
              = E(kin-el) + E(nuc-el) + E(el-el) + E(nuc-nuc)
    E(ZPE)  - the the zero temperature vibrational energy from the frequency calculation
    E(vib)  - the the finite temperature correction to E(ZPE) due to population
              of excited vibrational states
    E(rot)  - is the rotational thermal energy
    E(trans)- is the translational thermal energy

Summary of contributions to the inner energy U:
Electronic energy                ...  -5981.23425523 Eh
Zero point energy                ...      0.58676036 Eh     368.20 kcal/mol
Thermal vibrational correction   ...      0.03559852 Eh      22.34 kcal/mol
Thermal rotational correction    ...      0.00141627 Eh       0.89 kcal/mol
Thermal translational correction ...      0.00141627 Eh       0.89 kcal/mol
-----------------------------------------------------------------------
Total thermal energy                  -5980.60906380 Eh


Summary of corrections to the electronic energy:
(perhaps to be used in another calculation)
Total thermal correction                  0.03843107 Eh      24.12 kcal/mol
Non-thermal (ZPE) correction              0.58676036 Eh     368.20 kcal/mol
-----------------------------------------------------------------------
Total correction                          0.62519143 Eh     392.31 kcal/mol


--------
ENTHALPY
--------

The enthalpy is H = U + kB*T
                kB is Boltzmann's constant
Total free energy                 ...  -5980.60906380 Eh 
Thermal Enthalpy correction       ...      0.00094421 Eh       0.59 kcal/mol
-----------------------------------------------------------------------
Total Enthalpy                    ...  -5980.60811959 Eh


Note: Only C1 symmetry has been detected, increase convergence thresholds 
      if your molecule has a higher symmetry. Symmetry factor of 1.0 is   
      used for the rotational entropy correction. 
 

Note: Rotational entropy computed according to Herzberg 
Infrared and Raman Spectra, Chapter V,1, Van Nostrand Reinhold, 1945 
Point Group:  C1, Symmetry Number:   1  
Rotational constants in cm-1:     0.003022     0.002009     0.001785 

Vibrational entropy computed according to the QRRHO of S. Grimme
Chem.Eur.J. 2012 18 9955


-------
ENTROPY
-------

The entropy contributions are T*S = T*(S(el)+S(vib)+S(rot)+S(trans))
     S(el)   - electronic entropy
     S(vib)  - vibrational entropy
     S(rot)  - rotational entropy
     S(trans)- translational entropy
The entropies will be listed as multiplied by the temperature to get
units of energy

Electronic entropy                ...      0.00000000 Eh      0.00 kcal/mol
Vibrational entropy               ...      0.06244161 Eh     39.18 kcal/mol
Rotational entropy                ...      0.01816909 Eh     11.40 kcal/mol
Translational entropy             ...      0.02164958 Eh     13.59 kcal/mol
-----------------------------------------------------------------------
Final entropy term                ...      0.10226028 Eh     64.17 kcal/mol

In case the symmetry of your molecule has not been determined correctly
or in case you have a reason to use a different symmetry number we print 
out the resulting rotational entropy values for sn=1,12 :
 --------------------------------------------------------
|  sn= 1 | S(rot)=       0.01816909 Eh     11.40 kcal/mol|
|  sn= 2 | S(rot)=       0.01751463 Eh     10.99 kcal/mol|
|  sn= 3 | S(rot)=       0.01713180 Eh     10.75 kcal/mol|
|  sn= 4 | S(rot)=       0.01686017 Eh     10.58 kcal/mol|
|  sn= 5 | S(rot)=       0.01664949 Eh     10.45 kcal/mol|
|  sn= 6 | S(rot)=       0.01647734 Eh     10.34 kcal/mol|
|  sn= 7 | S(rot)=       0.01633179 Eh     10.25 kcal/mol|
|  sn= 8 | S(rot)=       0.01620572 Eh     10.17 kcal/mol|
|  sn= 9 | S(rot)=       0.01609451 Eh     10.10 kcal/mol|
|  sn=10 | S(rot)=       0.01599503 Eh     10.04 kcal/mol|
|  sn=11 | S(rot)=       0.01590504 Eh      9.98 kcal/mol|
|  sn=12 | S(rot)=       0.01582288 Eh      9.93 kcal/mol|
 --------------------------------------------------------


-------------------
GIBBS FREE ENERGY
-------------------

The Gibbs free energy is G = H - T*S

Total enthalpy                    ...  -5980.60811959 Eh 
Total entropy correction          ...     -0.10226028 Eh    -64.17 kcal/mol
-----------------------------------------------------------------------
Final Gibbs free energy         ...  -5980.71037987 Eh

For completeness - the Gibbs free energy minus the electronic energy
G-E(el)                           ...      0.52387536 Eh    328.74 kcal/mol



Timings for individual modules:

Sum of individual times         ...     2707.545 sec (=  45.126 min)
GTO integral calculation        ...        6.558 sec (=   0.109 min)   0.2 %
SCF iterations                  ...       29.007 sec (=   0.483 min)   1.1 %
SCF Gradient evaluation         ...       20.529 sec (=   0.342 min)   0.8 %
Numerical frequency calculation ...     2651.452 sec (=  44.191 min)  97.9 %
                             ****ORCA TERMINATED NORMALLY****
TOTAL RUN TIME: 0 days 0 hours 44 minutes 43 seconds 414 msec
