
                                 *****************
                                 * O   R   C   A *
                                 *****************

                                            #,                                       
                                            ###                                      
                                            ####                                     
                                            #####                                    
                                            ######                                   
                                           ########,                                 
                                     ,,################,,,,,                         
                               ,,#################################,,                 
                          ,,##########################################,,             
                       ,#########################################, ''#####,          
                    ,#############################################,,   '####,        
                  ,##################################################,,,,####,       
                ,###########''''           ''''###############################       
              ,#####''   ,,,,##########,,,,          '''####'''          '####       
            ,##' ,,,,###########################,,,                        '##       
           ' ,,###''''                  '''############,,,                           
         ,,##''                                '''############,,,,        ,,,,,,###''
      ,#''                                            '''#######################'''  
     '                                                          ''''####''''         
             ,#######,   #######,   ,#######,      ##                                
            ,#'     '#,  ##    ##  ,#'     '#,    #''#        ######   ,####,        
            ##       ##  ##   ,#'  ##            #'  '#       #        #'  '#        
            ##       ##  #######   ##           ,######,      #####,   #    #        
            '#,     ,#'  ##    ##  '#,     ,#' ,#      #,         ##   #,  ,#        
             '#######'   ##     ##  '#######'  #'      '#     #####' # '####'        



                  #######################################################
                  #                        -***-                        #
                  #          Department of theory and spectroscopy      #
                  #    Directorship and core code : Frank Neese         #
                  #        Max Planck Institute fuer Kohlenforschung    #
                  #                Kaiser Wilhelm Platz 1               #
                  #                 D-45470 Muelheim/Ruhr               #
                  #                      Germany                        #
                  #                                                     #
                  #                  All rights reserved                #
                  #                        -***-                        #
                  #######################################################


                         Program Version 5.0.1 -  RELEASE  -


 With contributions from (in alphabetic order):
   Daniel Aravena         : Magnetic Suceptibility
   Michael Atanasov       : Ab Initio Ligand Field Theory (pilot matlab implementation)
   Alexander A. Auer      : GIAO ZORA, VPT2 properties, NMR spectrum
   Ute Becker             : Parallelization
   Giovanni Bistoni       : ED, misc. LED, open-shell LED, HFLD
   Martin Brehm           : Molecular dynamics
   Dmytro Bykov           : SCF Hessian
   Vijay G. Chilkuri      : MRCI spin determinant printing, contributions to CSF-ICE
   Dipayan Datta          : RHF DLPNO-CCSD density
   Achintya Kumar Dutta   : EOM-CC, STEOM-CC
   Dmitry Ganyushin       : Spin-Orbit,Spin-Spin,Magnetic field MRCI
   Miquel Garcia          : C-PCM and meta-GGA Hessian, CC/C-PCM, Gaussian charge scheme
   Yang Guo               : DLPNO-NEVPT2, F12-NEVPT2, CIM, IAO-localization
   Andreas Hansen         : Spin unrestricted coupled pair/coupled cluster methods
   Benjamin Helmich-Paris : MC-RPA, TRAH-SCF, COSX integrals
   Lee Huntington         : MR-EOM, pCC
   Robert Izsak           : Overlap fitted RIJCOSX, COSX-SCS-MP3, EOM
   Marcus Kettner         : VPT2
   Christian Kollmar      : KDIIS, OOCD, Brueckner-CCSD(T), CCSD density, CASPT2, CASPT2-K
   Simone Kossmann        : Meta GGA functionals, TD-DFT gradient, OOMP2, MP2 Hessian
   Martin Krupicka        : Initial AUTO-CI
   Lucas Lang             : DCDCAS
   Marvin Lechner         : AUTO-CI (C++ implementation), FIC-MRCC
   Dagmar Lenk            : GEPOL surface, SMD
   Dimitrios Liakos       : Extrapolation schemes; Compound Job, initial MDCI parallelization
   Dimitrios Manganas     : Further ROCIS development; embedding schemes
   Dimitrios Pantazis     : SARC Basis sets
   Anastasios Papadopoulos: AUTO-CI, single reference methods and gradients
   Taras Petrenko         : DFT Hessian,TD-DFT gradient, ASA, ECA, R-Raman, ABS, FL, XAS/XES, NRVS
   Peter Pinski           : DLPNO-MP2, DLPNO-MP2 Gradient
   Christoph Reimann      : Effective Core Potentials
   Marius Retegan         : Local ZFS, SOC
   Christoph Riplinger    : Optimizer, TS searches, QM/MM, DLPNO-CCSD(T), (RO)-DLPNO pert. Triples
   Tobias Risthaus        : Range-separated hybrids, TD-DFT gradient, RPA, STAB
   Michael Roemelt        : Original ROCIS implementation
   Masaaki Saitow         : Open-shell DLPNO-CCSD energy and density
   Barbara Sandhoefer     : DKH picture change effects
   Avijit Sen             : IP-ROCIS
   Kantharuban Sivalingam : CASSCF convergence, NEVPT2, FIC-MRCI
   Bernardo de Souza      : ESD, SOC TD-DFT
   Georgi Stoychev        : AutoAux, RI-MP2 NMR, DLPNO-MP2 response
   Willem Van den Heuvel  : Paramagnetic NMR
   Boris Wezisla          : Elementary symmetry handling
   Frank Wennmohs         : Technical directorship


 We gratefully acknowledge several colleagues who have allowed us to
 interface, adapt or use parts of their codes:
   Stefan Grimme, W. Hujo, H. Kruse, P. Pracht,  : VdW corrections, initial TS optimization,
                  C. Bannwarth, S. Ehlert          DFT functionals, gCP, sTDA/sTD-DF
   Ed Valeev, F. Pavosevic, A. Kumar             : LibInt (2-el integral package), F12 methods
   Garnet Chan, S. Sharma, J. Yang, R. Olivares  : DMRG
   Ulf Ekstrom                                   : XCFun DFT Library
   Mihaly Kallay                                 : mrcc  (arbitrary order and MRCC methods)
   Jiri Pittner, Ondrej Demel                    : Mk-CCSD
   Frank Weinhold                                : gennbo (NPA and NBO analysis)
   Christopher J. Cramer and Donald G. Truhlar   : smd solvation model
   Lars Goerigk                                  : TD-DFT with DH, B97 family of functionals
   V. Asgeirsson, H. Jonsson                     : NEB implementation
   FAccTs GmbH                                   : IRC, NEB, NEB-TS, DLPNO-Multilevel, CI-OPT
                                                   MM, QMMM, 2- and 3-layer-ONIOM, Crystal-QMMM,
                                                   LR-CPCM, SF, NACMEs, symmetry and pop. for TD-DFT,
                                                   nearIR, NL-DFT gradient (VV10), updates on ESD,
                                                   ML-optimized integration grids
   S Lehtola, MJT Oliveira, MAL Marques          : LibXC Library
   Liviu Ungur et al                             : ANISO software


 Your calculation uses the libint2 library for the computation of 2-el integrals
 For citations please refer to: http://libint.valeyev.net

 Your ORCA version has been built with support for libXC version: 5.1.0
 For citations please refer to: https://tddft.org/programs/libxc/

 This ORCA versions uses:
   CBLAS   interface :  Fast vector & matrix operations
   LAPACKE interface :  Fast linear algebra routines
   SCALAPACK package :  Parallel linear algebra routines
   Shared memory     :  Shared parallel matrices
   BLAS/LAPACK       :  OpenBLAS 0.3.15  USE64BITINT DYNAMIC_ARCH NO_AFFINITY Zen SINGLE_THREADED
        Core in use  :  Zen
   Copyright (c) 2011-2014, The OpenBLAS Project


Your calculation utilizes the atom-pairwise dispersion correction
based on tight binding partial charges (D4)
Cite in your paper:
E.Caldeweyher, C.Bannwarth, S.Grimme, J.Chem.Phys., (2017), 147, 034112.
E.Caldeweyher, S.Ehlert, A.Hansen, H.Neugebauer, S.Grimme, J.Chem.Phys., (2018), in progress.
   

XCFun DFT library Copyright 2009-2010 Ulf Ekstrom and contributors.
See http://admol.org/xcfun for more information.
This is free software; see the source code for copying conditions.
There is ABSOLUTELY NO WARRANTY; not even for MERCHANTABILITY or FITNESS FOR A PARTICULAR PURPOSE.
For details see the documentation.
Scientific users of this library should cite U. Ekstrom, L. Visscher, R. Bast, A. J. Thorvaldsen and K. Ruud;
J.Chem.Theor.Comp. 2010, DOI: 10.1021/ct100117s
XCFun Version 0.99 

================================================================================

----- Orbital basis set information -----
Your calculation utilizes the basis: def2-TZVP
   F. Weigend and R. Ahlrichs, Phys. Chem. Chem. Phys. 7, 3297 (2005).

----- AuxJ basis set information -----
Your calculation utilizes the auxiliary basis: def2/J
   F. Weigend, Phys. Chem. Chem. Phys. 8, 1057 (2006).

================================================================================
                                        WARNINGS
                       Please study these warnings very carefully!
================================================================================

WARNING: Old DensityContainer found on disk!
         Will remove this file - 
         If you want to keep old densities, please start your calculation with a different basename. 


WARNING: your system is open-shell and RHF/RKS was chosen
  ===> : WILL SWITCH to UHF/UKS


WARNING: Geometry Optimization
  ===> : Switching off AutoStart
         For restart on a previous wavefunction, please use MOREAD

INFO   : the flag for use of the SHARK integral package has been found!

================================================================================
                                       INPUT FILE
================================================================================
NAME = /scratch/negishi/li1724/112224-HS-TS/RESULT/258/105772_0/105772_0-TSOPT.in
|  1> ! wB97X D4 def2-TZVP defgrid2 OptTS Freq
|  2> 
|  3> %scf
|  4>   MaxIter 500
|  5> end
|  6> 
|  7> %pal
|  8>   nproc 24
|  9> end
| 10> 
| 11> %maxcore 2000
| 12> 
| 13> %geom
| 14>   Calc_Hess true
| 15>   Recalc_Hess 1
| 16> end
| 17> 
| 18> %base "105772_0-TSOPT"
| 19> 
| 20> *xyz 0 2
| 21> C   -0.41764402  -0.00505847  -0.83216249 
| 22> C    0.21682055  -0.79847268   2.00238696 
| 23> C    0.27618036  -0.57367766  -1.81402706 
| 24> C    0.29070363   0.95073413   0.09056017 
| 25> C   -1.89346927  -0.20670272  -0.62733855 
| 26> N    0.33992749   0.48741779   1.53895253 
| 27> O   -0.15088503  -1.82679806   1.36463173 
| 28> H    4.49867615   0.40128125   0.20873347 
| 29> H    0.49115480  -0.80034449   3.10206255 
| 30> H    1.33333244  -0.36588198  -1.93288249 
| 31> H   -0.17773992  -1.26730599  -2.51188158 
| 32> H   -0.21744483   1.97749366   0.06864464 
| 33> H    1.35353824   1.10160923  -0.28908936 
| 34> H   -2.08697663  -0.65299069   0.34786918 
| 35> H   -2.30777294  -0.86641938  -1.39039794 
| 36> H   -2.43184060   0.74167950  -0.67035700 
| 37> H    0.69329830   1.17806117   2.22045554 
| 38> *
| 39> 
| 40>                          ****END OF INPUT****
================================================================================

                       *****************************
                       * Geometry Optimization Run *
                       *****************************

Geometry optimization settings:
Update method            Update   .... Bofill
Choice of coordinates    CoordSys .... Z-matrix Internals
Initial Hessian          InHess   .... Almoef's Model

Convergence Tolerances:
Energy Change            TolE     ....  5.0000e-06 Eh
Max. Gradient            TolMAXG  ....  3.0000e-04 Eh/bohr
RMS Gradient             TolRMSG  ....  1.0000e-04 Eh/bohr
Max. Displacement        TolMAXD  ....  4.0000e-03 bohr
RMS Displacement         TolRMSD  ....  2.0000e-03 bohr
Strict Convergence                ....  False
------------------------------------------------------------------------------
                        ORCA OPTIMIZATION COORDINATE SETUP
------------------------------------------------------------------------------

The optimization will be done in new redundant internal coordinates
Making redundant internal coordinates   ...  (new redundants) done
Following TS mode number                ...     0
Evaluating the initial hessian          ...  (Is done on the fly) done
Evaluating the coordinates              ...  done
Calculating the B-matrix                .... done
Calculating the G-matrix                .... done
Diagonalizing the G-matrix              .... done
Small eigenvalue found = 2.193e-02
The first mode is                       ....   32
The number of degrees of freedom        ....   45

    -----------------------------------------------------------------
                    Redundant Internal Coordinates


    -----------------------------------------------------------------
         Definition                    Initial Value    d2E/dq (diagonal element)
    -----------------------------------------------------------------
      1. B(C   2,C   0)                  1.3300         0.000000   
      2. B(C   3,C   0)                  1.5056         0.000000   
      3. B(C   4,C   0)                  1.5036         0.000000   
      4. B(N   5,C   3)                  1.5215         0.000000   
      5. B(N   5,C   1)                  1.3724         0.000000   
      6. B(O   6,C   1)                  1.2647         0.000000   
      7. B(H   8,C   1)                  1.1334         0.000000   
      8. B(H   9,C   2)                  1.0839         0.000000   
      9. B(H   9,H   7)                  3.8980         0.000000   
     10. B(H  10,C   2)                  1.0836         0.000000   
     11. B(H  11,C   3)                  1.1458         0.000000   
     12. B(H  12,C   3)                  1.1386         0.000000   
     13. B(H  12,H   7)                  3.2604         0.000000   
     14. B(H  13,C   4)                  1.0898         0.000000   
     15. B(H  14,C   4)                  1.0905         0.000000   
     16. B(H  15,C   4)                  1.0914         0.000000   
     17. B(H  16,N   5)                  1.0326         0.000000   
     18. A(C   3,C   0,C   4)          117.6106         0.000000   
     19. A(C   2,C   0,C   4)          123.7315         0.000000   
     20. A(C   2,C   0,C   3)          118.5838         0.000000   
     21. A(N   5,C   1,O   6)          128.1456         0.000000   
     22. A(O   6,C   1,H   8)          123.9399         0.000000   
     23. A(N   5,C   1,H   8)          107.9073         0.000000   
     24. A(H   9,C   2,H  10)          117.4296         0.000000   
     25. A(C   0,C   2,H  10)          122.0464         0.000000   
     26. A(C   0,C   2,H   9)          120.5173         0.000000   
     27. A(C   0,C   3,H  12)          108.5985         0.000000   
     28. A(N   5,C   3,H  11)          107.7838         0.000000   
     29. A(C   0,C   3,H  11)          110.3955         0.000000   
     30. A(H  11,C   3,H  12)          106.7884         0.000000   
     31. A(N   5,C   3,H  12)          109.1204         0.000000   
     32. A(C   0,C   3,N   5)          113.9121         0.000000   
     33. A(H  14,C   4,H  15)          108.1022         0.000000   
     34. A(H  13,C   4,H  15)          107.6703         0.000000   
     35. A(C   0,C   4,H  15)          111.2406         0.000000   
     36. A(H  13,C   4,H  14)          108.1174         0.000000   
     37. A(C   0,C   4,H  14)          111.0225         0.000000   
     38. A(C   0,C   4,H  13)          110.5554         0.000000   
     39. A(C   3,N   5,H  16)          115.8280         0.000000   
     40. A(C   1,N   5,H  16)          115.7539         0.000000   
     41. A(C   1,N   5,C   3)          127.1485         0.000000   
     42. A(H   9,H   7,H  12)           34.4166         0.000000   
     43. A(C   2,H   9,H   7)          140.3067         0.000000   
     44. A(C   3,H  12,H   7)          145.1902         0.000000   
     45. D(H  10,C   2,C   0,C   4)     -3.0225         0.000000   
     46. D(H   9,C   2,C   0,C   3)      1.1581         0.000000   
     47. D(H   9,C   2,C   0,C   4)    177.9510         0.000000   
     48. D(H  10,C   2,C   0,C   3)   -179.8154         0.000000   
     49. D(H  12,C   3,C   0,C   2)      5.0317         0.000000   
     50. D(H  12,C   3,C   0,C   4)   -171.9585         0.000000   
     51. D(H  11,C   3,C   0,C   2)    121.7916         0.000000   
     52. D(N   5,C   3,C   0,C   2)   -116.7886         0.000000   
     53. D(H  11,C   3,C   0,C   4)    -55.1986         0.000000   
     54. D(N   5,C   3,C   0,C   4)     66.2212         0.000000   
     55. D(H  14,C   4,C   0,C   3)    176.3085         0.000000   
     56. D(H  13,C   4,C   0,C   3)    -63.6979         0.000000   
     57. D(H  13,C   4,C   0,C   2)    119.4802         0.000000   
     58. D(H  15,C   4,C   0,C   2)   -120.9449         0.000000   
     59. D(H  14,C   4,C   0,C   2)     -0.5133         0.000000   
     60. D(H  15,C   4,C   0,C   3)     55.8769         0.000000   
     61. D(H  16,N   5,C   3,H  12)     67.1167         0.000000   
     62. D(H  16,N   5,C   3,H  11)    -48.4932         0.000000   
     63. D(H  16,N   5,C   3,C   0)   -171.3519         0.000000   
     64. D(C   1,N   5,C   3,H  12)    -99.3745         0.000000   
     65. D(C   1,N   5,C   3,H  11)    145.0156         0.000000   
     66. D(C   1,N   5,C   3,C   0)     22.1569         0.000000   
     67. D(H  16,N   5,C   1,H   8)      3.2280         0.000000   
     68. D(H  16,N   5,C   1,O   6)   -177.7282         0.000000   
     69. D(C   3,N   5,C   1,H   8)    169.7278         0.000000   
     70. D(C   3,N   5,C   1,O   6)    -11.2284         0.000000   
     71. D(C   2,H   9,H   7,H  12)    -46.5777         0.000000   
     72. D(H   7,H   9,C   2,H  10)   -145.2052         0.000000   
     73. D(H   7,H   9,C   2,C   0)     33.8652         0.000000   
     74. D(H   7,H  12,C   3,N   5)     18.6930         0.000000   
     75. D(H   7,H  12,C   3,C   0)   -106.0086         0.000000   
     76. D(C   3,H  12,H   7,H   9)    103.7079         0.000000   
     77. D(H   7,H  12,C   3,H  11)    134.9400         0.000000   
    -----------------------------------------------------------------

Number of atoms                         .... 17
Number of degrees of freedom            .... 77

         *************************************************************
         *                GEOMETRY OPTIMIZATION CYCLE   1            *
         *************************************************************
---------------------------------
CARTESIAN COORDINATES (ANGSTROEM)
---------------------------------
  C     -0.417644   -0.005058   -0.832162
  C      0.216821   -0.798473    2.002387
  C      0.276180   -0.573678   -1.814027
  C      0.290704    0.950734    0.090560
  C     -1.893469   -0.206703   -0.627339
  N      0.339927    0.487418    1.538953
  O     -0.150885   -1.826798    1.364632
  H      4.498676    0.401281    0.208733
  H      0.491155   -0.800344    3.102063
  H      1.333332   -0.365882   -1.932882
  H     -0.177740   -1.267306   -2.511882
  H     -0.217445    1.977494    0.068645
  H      1.353538    1.101609   -0.289089
  H     -2.086977   -0.652991    0.347869
  H     -2.307773   -0.866419   -1.390398
  H     -2.431841    0.741679   -0.670357
  H      0.693298    1.178061    2.220456

----------------------------
CARTESIAN COORDINATES (A.U.)
----------------------------
  NO LB      ZA    FRAG     MASS         X           Y           Z
   0 C     6.0000    0    12.011   -0.789233   -0.009559   -1.572559
   1 C     6.0000    0    12.011    0.409731   -1.508895    3.783963
   2 C     6.0000    0    12.011    0.521905   -1.084094   -3.428014
   3 C     6.0000    0    12.011    0.549350    1.796627    0.171134
   4 C     6.0000    0    12.011   -3.578138   -0.390612   -1.185498
   5 N     7.0000    0    14.007    0.642370    0.921086    2.908199
   6 O     8.0000    0    15.999   -0.285131   -3.452148    2.578780
   7 H     1.0000    0     1.008    8.501266    0.758312    0.394449
   8 H     1.0000    0     1.008    0.928148   -1.512432    5.862049
   9 H     1.0000    0     1.008    2.519633   -0.691417   -3.652619
  10 H     1.0000    0     1.008   -0.335880   -2.394861   -4.746768
  11 H     1.0000    0     1.008   -0.410911    3.736921    0.129720
  12 H     1.0000    0     1.008    2.557817    2.081740   -0.546300
  13 H     1.0000    0     1.008   -3.943814   -1.233974    0.657377
  14 H     1.0000    0     1.008   -4.361059   -1.637295   -2.627471
  15 H     1.0000    0     1.008   -4.595513    1.401571   -1.266791
  16 H     1.0000    0     1.008    1.310144    2.226213    4.196053

--------------------------------
INTERNAL COORDINATES (ANGSTROEM)
--------------------------------
 C      0   0   0     0.000000000000     0.00000000     0.00000000
 C      1   0   0     3.011099796372     0.00000000     0.00000000
 C      1   2   0     1.329954167383   118.19022198     0.00000000
 C      1   2   3     1.505560691156    59.41615002   251.71278081
 C      1   2   3     1.503553596814    92.47856167   130.83057922
 N      2   1   3     1.372385182965    56.91557322   119.38655143
 O      2   1   3     1.264670792779    71.23253075   299.92208168
 H      4   1   2     4.245338163827   113.65585997    85.27105426
 H      2   1   3     1.133379542624   164.75493966   125.18925205
 H      3   1   2     1.083917053153   120.51726317   292.58845070
 H      3   1   2     1.083588857389   122.04637452   111.61498227
 H      4   1   2     1.145831698070   110.39550401   229.42253202
 H      4   1   2     1.138645892999   108.59853216   112.66268329
 H      5   1   2     1.089792717535   110.55540647   352.79179517
 H      5   1   2     1.090473858065   111.02246145   232.79822069
 H      5   1   2     1.091385867243   111.24062263   112.36663126
 H      6   2   1     1.032620724340   115.75388800   181.62701172

---------------------------
INTERNAL COORDINATES (A.U.)
---------------------------
 C      0   0   0     0.000000000000     0.00000000     0.00000000
 C      1   0   0     5.690153977049     0.00000000     0.00000000
 C      1   2   0     2.513249147022   118.19022198     0.00000000
 C      1   2   3     2.845097384281    59.41615002   251.71278081
 C      1   2   3     2.841304525651    92.47856167   130.83057922
 N      2   1   3     2.593432146056    56.91557322   119.38655143
 O      2   1   3     2.389881447921    71.23253075   299.92208168
 H      4   1   2     8.022526475518   113.65585997    85.27105426
 H      2   1   3     2.141776941347   164.75493966   125.18925205
 H      3   1   2     2.048306382346   120.51726317   292.58845070
 H      3   1   2     2.047686182234   122.04637452   111.61498227
 H      4   1   2     2.165308104918   110.39550401   229.42253202
 H      4   1   2     2.151728901282   108.59853216   112.66268329
 H      5   1   2     2.059409778883   110.55540647   352.79179517
 H      5   1   2     2.060696947944   111.02246145   232.79822069
 H      5   1   2     2.062420395522   111.24062263   112.36663126
 H      6   2   1     1.951370369214   115.75388800   181.62701172

---------------------
BASIS SET INFORMATION
---------------------
There are 4 groups of distinct atoms

 Group   1 Type C   : 11s6p2d1f contracted to 5s3p2d1f pattern {62111/411/11/1}
 Group   2 Type N   : 11s6p2d1f contracted to 5s3p2d1f pattern {62111/411/11/1}
 Group   3 Type O   : 11s6p2d1f contracted to 5s3p2d1f pattern {62111/411/11/1}
 Group   4 Type H   : 5s1p contracted to 3s1p pattern {311/1}

Atom   0C    basis set group =>   1
Atom   1C    basis set group =>   1
Atom   2C    basis set group =>   1
Atom   3C    basis set group =>   1
Atom   4C    basis set group =>   1
Atom   5N    basis set group =>   2
Atom   6O    basis set group =>   3
Atom   7H    basis set group =>   4
Atom   8H    basis set group =>   4
Atom   9H    basis set group =>   4
Atom  10H    basis set group =>   4
Atom  11H    basis set group =>   4
Atom  12H    basis set group =>   4
Atom  13H    basis set group =>   4
Atom  14H    basis set group =>   4
Atom  15H    basis set group =>   4
Atom  16H    basis set group =>   4
---------------------------------
AUXILIARY/J BASIS SET INFORMATION
---------------------------------
There are 4 groups of distinct atoms

 Group   1 Type C   : 12s5p4d2f1g contracted to 6s4p3d1f1g pattern {711111/2111/211/2/1}
 Group   2 Type N   : 12s5p4d2f1g contracted to 6s4p3d1f1g pattern {711111/2111/211/2/1}
 Group   3 Type O   : 12s5p4d2f1g contracted to 6s4p3d1f1g pattern {711111/2111/211/2/1}
 Group   4 Type H   : 5s2p1d contracted to 3s1p1d pattern {311/2/1}

Atom   0C    basis set group =>   1
Atom   1C    basis set group =>   1
Atom   2C    basis set group =>   1
Atom   3C    basis set group =>   1
Atom   4C    basis set group =>   1
Atom   5N    basis set group =>   2
Atom   6O    basis set group =>   3
Atom   7H    basis set group =>   4
Atom   8H    basis set group =>   4
Atom   9H    basis set group =>   4
Atom  10H    basis set group =>   4
Atom  11H    basis set group =>   4
Atom  12H    basis set group =>   4
Atom  13H    basis set group =>   4
Atom  14H    basis set group =>   4
Atom  15H    basis set group =>   4
Atom  16H    basis set group =>   4


           ************************************************************
           *        Program running with 24 parallel MPI-processes    *
           *              working on a common directory               *
           ************************************************************
------------------------------------------------------------------------------
                           ORCA GTO INTEGRAL CALCULATION
                           -- RI-GTO INTEGRALS CHOSEN --
------------------------------------------------------------------------------
------------------------------------------------------------------------------
                   ___                                                        
                  /   \      - P O W E R E D   B Y -                         
                 /     \                                                     
                 |  |  |   _    _      __       _____    __    __             
                 |  |  |  | |  | |    /  \     |  _  \  |  |  /  |          
                  \  \/   | |  | |   /    \    | | | |  |  | /  /          
                 / \  \   | |__| |  /  /\  \   | |_| |  |  |/  /          
                |  |  |   |  __  | /  /__\  \  |    /   |      \           
                |  |  |   | |  | | |   __   |  |    \   |  |\   \          
                \     /   | |  | | |  |  |  |  | |\  \  |  | \   \       
                 \___/    |_|  |_| |__|  |__|  |_| \__\ |__|  \__/        
                                                                              
                      - O R C A' S   B I G   F R I E N D -                    
                                      &                                       
                       - I N T E G R A L  F E E D E R -                       
                                                                              
 v1 FN, 2020, v2 2021                                                         
------------------------------------------------------------------------------


Reading SHARK input file 105772_0-TSOPT.SHARKINP.tmp ... ok
----------------------
SHARK INTEGRAL PACKAGE
----------------------

Number of atoms                             ...     17
Number of basis functions                   ...    277
Number of shells                            ...    117
Maximum angular momentum                    ...      3
Integral batch strategy                     ... SHARK/LIBINT Hybrid
RI-J (if used) integral strategy            ... SPLIT-RIJ (Revised 2003 algorithm where possible)
Printlevel                                  ...      1
Contraction scheme used                     ... SEGMENTED contraction
Coulomb Range Separation                    ... NOT USED
Exchange Range Separation                   ... Long Range
   Mu parameter                             ...  0.300000
   Scaling (regular/separated)              ...  0.157706  0.842294
Finite Nucleus Model                        ... NOT USED
Auxiliary Coulomb fitting basis             ... AVAILABLE
   # of basis functions in Aux-J            ...    453
   # of shells in Aux-J                     ...    155
   Maximum angular momentum in Aux-J        ...      4
Auxiliary J/K fitting basis                 ... NOT available
Auxiliary Correlation fitting basis         ... NOT available
Auxiliary 'external' fitting basis          ... NOT available
Integral threshold                          ...     2.500000e-11
Primitive cut-off                           ...     2.500000e-12
Primitive pair pre-selection threshold      ...     2.500000e-12

Calculating pre-screening integrals         ... done (  0.1 sec) Dimension = 117
Organizing shell pair data                  ... done (  0.1 sec)
Shell pair information
Total number of shell pairs                 ...      6903
Shell pairs after pre-screening             ...      6356
Total number of primitive shell pairs       ...     20284
Primitive shell pairs kept                  ...     14138
          la=0 lb=0:   1909 shell pairs
          la=1 lb=0:   1847 shell pairs
          la=1 lb=1:    473 shell pairs
          la=2 lb=0:    844 shell pairs
          la=2 lb=1:    416 shell pairs
          la=2 lb=2:    105 shell pairs
          la=3 lb=0:    423 shell pairs
          la=3 lb=1:    213 shell pairs
          la=3 lb=2:     98 shell pairs
          la=3 lb=3:     28 shell pairs

Calculating one electron integrals          ... done (  0.0 sec)
Calculating RI/J V-Matrix + Cholesky decomp.... done (  0.0 sec)
Calculating Nuclear repulsion               ... done (  0.0 sec) ENN=    304.638279863952 Eh

SHARK setup successfully completed in   0.3 seconds

Maximum memory used throughout the entire GTOINT-calculation: 14.0 MB


           ************************************************************
           *        Program running with 24 parallel MPI-processes    *
           *              working on a common directory               *
           ************************************************************
-------------------------------------------------------------------------------
                                 ORCA SCF
-------------------------------------------------------------------------------

------------
SCF SETTINGS
------------
Hamiltonian:
 Density Functional     Method          .... DFT(GTOs)
 Exchange Functional    Exchange        .... WB97X
 Correlation Functional Correlation     .... WB97X
 Gradients option       PostSCFGGA      .... off
 Hybrid DFT is turned on
   Fraction HF Exchange ScalHFX         ....  0.157706
   Scaling of DF-GGA-X  ScalDFX         ....  0.000000
   Scaling of DF-GGA-C  ScalDFC         ....  1.000000
   Scaling of DF-LDA-C  ScalLDAC        ....  1.000000
   Perturbative correction              ....  0.000000
   Density functional embedding theory  .... OFF
 Long-range corrected/Screened/Range-Separated Hybrid DFT is turned on
   Amount of maximum screened exact exchange              ....  0.842294
   Range separation parameter mu (erf(mu*r12)/r12)        ....  0.300000
 RI-approximation to the Coulomb term is turned on
   Number of AuxJ basis functions       .... 453
   RIJ-COSX (HFX calculated with COS-X)).... on


General Settings:
 Integral files         IntName         .... 105772_0-TSOPT
 Hartree-Fock type      HFTyp           .... UHF
 Total Charge           Charge          ....    0
 Multiplicity           Mult            ....    2
 Number of Electrons    NEL             ....   55
 Basis Dimension        Dim             ....  277
 Nuclear Repulsion      ENuc            ....    304.6382798640 Eh

Convergence Acceleration:
 DIIS                   CNVDIIS         .... on
   Start iteration      DIISMaxIt       ....    12
   Startup error        DIISStart       ....  0.200000
   # of expansion vecs  DIISMaxEq       ....     5
   Bias factor          DIISBfac        ....   1.050
   Max. coefficient     DIISMaxC        ....  10.000
 Trust-Rad. Augm. Hess. CNVTRAH         .... auto
   Auto Start mean grad. ratio tolernc. ....  1.125000
   Auto Start start iteration           ....    20
   Auto Start num. interpolation iter.  ....    10
   Max. Number of Micro iterations      ....    16
   Max. Number of Macro iterations      .... Maxiter - #DIIS iter
   Number of Davidson start vectors     ....     2
   Converg. threshold I  (grad. norm)   ....   1.000e-05
   Converg. threshold II (energy diff.) ....   1.000e-08
   Grad. Scal. Fac. for Micro threshold ....   0.100
   Minimum threshold for Micro iter.    ....   0.010
   NR start threshold (gradient norm)   ....   0.001
   Initial trust radius                 ....   0.400
   Minimum AH scaling param. (alpha)    ....   1.000
   Maximum AH scaling param. (alpha)    .... 1000.000
   Orbital update algorithm             .... Taylor
   White noise on init. David. guess    .... on
   Maximum white noise                  ....   0.010
   Quad. conv. algorithm                .... NR
 SOSCF                  CNVSOSCF        .... off
 Level Shifting         CNVShift        .... on
   Level shift para.    LevelShift      ....    0.2500
   Turn off err/grad.   ShiftErr        ....    0.0010
 Zerner damping         CNVZerner       .... off
 Static damping         CNVDamp         .... on
   Fraction old density DampFac         ....    0.7000
   Max. Damping (<1)    DampMax         ....    0.9800
   Min. Damping (>=0)   DampMin         ....    0.0000
   Turn off err/grad.   DampErr         ....    0.1000
 Fernandez-Rico         CNVRico         .... off

SCF Procedure:
 Maximum # iterations   MaxIter         ....   500
 SCF integral mode      SCFMode         .... Direct
   Integral package                     .... SHARK and LIBINT hybrid scheme
 Reset frequency        DirectResetFreq ....    20
 Integral Threshold     Thresh          ....  2.500e-11 Eh
 Primitive CutOff       TCut            ....  2.500e-12 Eh

Convergence Tolerance:
 Convergence Check Mode ConvCheckMode   .... Total+1el-Energy
 Convergence forced     ConvForced      .... 0
 Energy Change          TolE            ....  1.000e-08 Eh
 1-El. energy change                    ....  1.000e-05 Eh
 DIIS Error             TolErr          ....  5.000e-07


Diagonalization of the overlap matrix:
Smallest eigenvalue                        ... 1.284e-04
Time for diagonalization                   ...    0.016 sec
Threshold for overlap eigenvalues          ... 1.000e-08
Number of eigenvalues below threshold      ... 0
Time for construction of square roots      ...    0.045 sec
Total time needed                          ...    0.062 sec

Time for model grid setup =    0.076 sec

------------------------------
INITIAL GUESS: MODEL POTENTIAL
------------------------------
Loading Hartree-Fock densities                     ... done
Calculating cut-offs                               ... done
Initializing the effective Hamiltonian             ... done
Setting up the integral package (SHARK)            ... done
Starting the Coulomb interaction                   ... done (   0.1 sec)
Reading the grid                                   ... done
Mapping shells                                     ... done
Starting the XC term evaluation                    ... done (   0.0 sec)
  promolecular density results
     # of electrons  =     54.994246261
     EX              =    -43.084549165
     EC              =     -1.776777246
     EX+EC           =    -44.861326411
Transforming the Hamiltonian                       ... done (   0.0 sec)
Diagonalizing the Hamiltonian                      ... done (   0.0 sec)
Back transforming the eigenvectors                 ... done (   0.0 sec)
Now organizing SCF variables                       ... done
                      ------------------
                      INITIAL GUESS DONE (   0.2 sec)
                      ------------------
-------------------
DFT GRID GENERATION
-------------------

General Integration Accuracy     IntAcc      ... 4.388
Radial Grid Type                 RadialGrid  ... OptM3 with GC (2021)
Angular Grid (max. ang.)         AngularGrid ... 4 (Lebedev-302)
Angular grid pruning method      GridPruning ... 4 (adaptive)
Weight generation scheme         WeightScheme... Becke
Basis function cutoff            BFCut       ... 1.0000e-11
Integration weight cutoff        WCut        ... 1.0000e-14
Angular grids for H and He will be reduced by one unit
Partially contracted basis set               ... off
Rotationally invariant grid construction     ... off

Total number of grid points                  ...    74581
Total number of batches                      ...     1174
Average number of points per batch           ...       63
Average number of grid points per atom       ...     4387
Time for grid setup =    0.344 sec

--------------------
COSX GRID GENERATION
--------------------

GRIDX 1
-------
General Integration Accuracy     IntAcc      ... 3.816
Radial Grid Type                 RadialGrid  ... OptM3 with GC (2021)
Angular Grid (max. ang.)         AngularGrid ... 1 (Lebedev-50)
Angular grid pruning method      GridPruning ... 4 (adaptive)
Weight generation scheme         WeightScheme... Becke
Basis function cutoff            BFCut       ... 1.0000e-11
Integration weight cutoff        WCut        ... 1.0000e-14
Angular grids for H and He will be reduced by one unit
Partially contracted basis set               ... on
Rotationally invariant grid construction     ... off

Total number of grid points                  ...     9593
Total number of batches                      ...      160
Average number of points per batch           ...       59
Average number of grid points per atom       ...      564
UseSFitting                                  ... on

GRIDX 2
-------
General Integration Accuracy     IntAcc      ... 4.020
Radial Grid Type                 RadialGrid  ... OptM3 with GC (2021)
Angular Grid (max. ang.)         AngularGrid ... 2 (Lebedev-110)
Angular grid pruning method      GridPruning ... 4 (adaptive)
Weight generation scheme         WeightScheme... Becke
Basis function cutoff            BFCut       ... 1.0000e-11
Integration weight cutoff        WCut        ... 1.0000e-14
Angular grids for H and He will be reduced by one unit
Partially contracted basis set               ... on
Rotationally invariant grid construction     ... off

Total number of grid points                  ...    20292
Total number of batches                      ...      323
Average number of points per batch           ...       62
Average number of grid points per atom       ...     1194
UseSFitting                                  ... on

GRIDX 3
-------
General Integration Accuracy     IntAcc      ... 4.338
Radial Grid Type                 RadialGrid  ... OptM3 with GC (2021)
Angular Grid (max. ang.)         AngularGrid ... 3 (Lebedev-194)
Angular grid pruning method      GridPruning ... 4 (adaptive)
Weight generation scheme         WeightScheme... Becke
Basis function cutoff            BFCut       ... 1.0000e-11
Integration weight cutoff        WCut        ... 1.0000e-14
Angular grids for H and He will be reduced by one unit
Partially contracted basis set               ... on
Rotationally invariant grid construction     ... off

Total number of grid points                  ...    44397
Total number of batches                      ...      702
Average number of points per batch           ...       63
Average number of grid points per atom       ...     2612
UseSFitting                                  ... on

Time for X-Grid setup             =    0.427 sec

--------------
SCF ITERATIONS
--------------
ITER       Energy         Delta-E        Max-DP      RMS-DP      [F,P]     Damp
               ***  Starting incremental Fock matrix formation  ***
  0   -326.1831425518   0.000000000000 0.02379086  0.00047434  0.2900820 0.7000
  1   -326.2893454000  -0.106202848177 0.01467446  0.00036227  0.1320788 0.7000
                               ***Turning on DIIS***
  2   -326.3392404692  -0.049895069225 0.03271019  0.00069968  0.0569766 0.0000
  3   -326.4228772663  -0.083636797120 0.01129829  0.00024709  0.0661868 0.0000
  4   -326.4354313217  -0.012554055346 0.00444684  0.00007432  0.0130978 0.0000
  5   -326.4360568489  -0.000625527224 0.00324040  0.00004143  0.0066925 0.0000
  6   -326.4361641818  -0.000107332919 0.00218207  0.00002208  0.0013974 0.0000
  7   -326.4361847798  -0.000020597965 0.00189426  0.00001760  0.0006471 0.0000
               *** Restarting incremental Fock matrix formation ***
                                   *** Resetting DIIS ***
  8   -326.4361874093  -0.000002629527 0.00044152  0.00000594  0.0002904 0.0000
  9   -326.4361880960  -0.000000686716 0.00008688  0.00000122  0.0002180 0.0000
 10   -326.4361883008  -0.000000204794 0.00014114  0.00000190  0.0000829 0.0000
 11   -326.4361883839  -0.000000083103 0.00001804  0.00000029  0.0000453 0.0000
 12   -326.4361883873  -0.000000003321 0.00000678  0.00000016  0.0000279 0.0000
 13   -326.4361883909  -0.000000003625 0.00000575  0.00000007  0.0000034 0.0000
 14   -326.4361883953  -0.000000004448 0.00000318  0.00000007  0.0000013 0.0000
                 **** Energy Check signals convergence ****

               *****************************************************
               *                     SUCCESS                       *
               *           SCF CONVERGED AFTER  15 CYCLES          *
               *****************************************************

Old exchange energy                            =    -14.196371489 Eh
New exchange energy                            =    -14.196390704 Eh
Exchange energy change after final integration =     -0.000019214 Eh
Total energy after final integration           =   -326.436207608 Eh
Final COS-X integration done in                =     1.461 sec

----------------
TOTAL SCF ENERGY
----------------

Total Energy       :         -326.43620761 Eh           -8882.78080 eV

Components:
Nuclear Repulsion  :          304.63827986 Eh            8289.62903 eV
Electronic Energy  :         -631.07448747 Eh          -17172.40983 eV
One Electron Energy:        -1045.43186697 Eh          -28447.64735 eV
Two Electron Energy:          414.35737950 Eh           11275.23752 eV
Max COSX asymmetry :            0.00000175 Eh               0.00005 eV

Virial components:
Potential Energy   :         -650.99472583 Eh          -17714.46708 eV
Kinetic Energy     :          324.55851822 Eh            8831.68628 eV
Virial Ratio       :            2.00578536


DFT components:
N(Alpha)           :       27.999970797350 electrons
N(Beta)            :       26.999966079475 electrons
N(Total)           :       54.999936876826 electrons
E(XC)              :      -31.946383939841 Eh       
DFET-embed. en.    :        0.000000000000 Eh       

---------------
SCF CONVERGENCE
---------------

  Last Energy change         ...    1.6379e-09  Tolerance :   1.0000e-08
  Last MAX-Density change    ...    0.0000e+00  Tolerance :   1.0000e-07
  Last RMS-Density change    ...    0.0000e+00  Tolerance :   5.0000e-09
  Last DIIS Error            ...    4.5652e-07  Tolerance :   5.0000e-07

             **** THE GBW FILE WAS UPDATED (105772_0-TSOPT.gbw) ****
             **** DENSITY 105772_0-TSOPT.scfp WAS UPDATED ****
             **** ENERGY FILE WAS UPDATED (105772_0-TSOPT.en.tmp) ****
----------------------
UHF SPIN CONTAMINATION
----------------------

Warning: in a DFT calculation there is little theoretical justification to 
         calculate <S**2> as in Hartree-Fock theory. We will do it anyways
         but you should keep in mind that the values have only limited relevance

Expectation value of <S**2>     :     0.750005
Ideal value S*(S+1) for S=0.5   :     0.750000
Deviation                       :     0.000005

             **** THE GBW FILE WAS UPDATED (105772_0-TSOPT.gbw) ****
             **** DENSITY 105772_0-TSOPT.scfp WAS UPDATED ****
----------------
ORBITAL ENERGIES
----------------
                 SPIN UP ORBITALS
  NO   OCC          E(Eh)            E(eV) 
   0   1.0000     -19.163128      -521.4552 
   1   1.0000     -14.438644      -392.8955 
   2   1.0000     -10.369851      -282.1780 
   3   1.0000     -10.320685      -280.8401 
   4   1.0000     -10.270632      -279.4781 
   5   1.0000     -10.242048      -278.7003 
   6   1.0000     -10.241223      -278.6778 
   7   1.0000      -1.139398       -31.0046 
   8   1.0000      -1.048958       -28.5436 
   9   1.0000      -0.940562       -25.5940 
  10   1.0000      -0.832499       -22.6535 
  11   1.0000      -0.811008       -22.0686 
  12   1.0000      -0.719125       -19.5684 
  13   1.0000      -0.658077       -17.9072 
  14   1.0000      -0.637571       -17.3492 
  15   1.0000      -0.583256       -15.8712 
  16   1.0000      -0.571299       -15.5458 
  17   1.0000      -0.549078       -14.9412 
  18   1.0000      -0.527613       -14.3571 
  19   1.0000      -0.518894       -14.1198 
  20   1.0000      -0.502297       -13.6682 
  21   1.0000      -0.476514       -12.9666 
  22   1.0000      -0.468265       -12.7421 
  23   1.0000      -0.449485       -12.2311 
  24   1.0000      -0.431994       -11.7551 
  25   1.0000      -0.375472       -10.2171 
  26   1.0000      -0.365755        -9.9527 
  27   1.0000      -0.338923        -9.2226 
  28   0.0000       0.083724         2.2783 
  29   0.0000       0.094025         2.5585 
  30   0.0000       0.111840         3.0433 
  31   0.0000       0.133077         3.6212 
  32   0.0000       0.162453         4.4206 
  33   0.0000       0.168137         4.5752 
  34   0.0000       0.171545         4.6680 
  35   0.0000       0.184824         5.0293 
  36   0.0000       0.205590         5.5944 
  37   0.0000       0.212397         5.7796 
  38   0.0000       0.214497         5.8368 
  39   0.0000       0.238406         6.4874 
  40   0.0000       0.246871         6.7177 
  41   0.0000       0.255310         6.9473 
  42   0.0000       0.269246         7.3265 
  43   0.0000       0.279372         7.6021 
  44   0.0000       0.298644         8.1265 
  45   0.0000       0.322240         8.7686 
  46   0.0000       0.325905         8.8683 
  47   0.0000       0.344319         9.3694 
  48   0.0000       0.353475         9.6185 
  49   0.0000       0.362970         9.8769 
  50   0.0000       0.375793        10.2259 
  51   0.0000       0.381237        10.3740 
  52   0.0000       0.404396        11.0042 
  53   0.0000       0.419718        11.4211 
  54   0.0000       0.435523        11.8512 
  55   0.0000       0.441364        12.0101 
  56   0.0000       0.464880        12.6500 
  57   0.0000       0.467358        12.7175 
  58   0.0000       0.483976        13.1697 
  59   0.0000       0.493570        13.4307 
  60   0.0000       0.497827        13.5466 
  61   0.0000       0.527382        14.3508 
  62   0.0000       0.530064        14.4238 
  63   0.0000       0.536996        14.6124 
  64   0.0000       0.547553        14.8997 
  65   0.0000       0.572571        15.5804 
  66   0.0000       0.576844        15.6967 
  67   0.0000       0.582723        15.8567 
  68   0.0000       0.590517        16.0688 
  69   0.0000       0.599298        16.3077 
  70   0.0000       0.611864        16.6497 
  71   0.0000       0.620706        16.8903 
  72   0.0000       0.627042        17.0627 
  73   0.0000       0.631982        17.1971 
  74   0.0000       0.652881        17.7658 
  75   0.0000       0.681585        18.5469 
  76   0.0000       0.707387        19.2490 
  77   0.0000       0.710987        19.3469 
  78   0.0000       0.716281        19.4910 
  79   0.0000       0.753580        20.5060 
  80   0.0000       0.783344        21.3159 
  81   0.0000       0.806965        21.9586 
  82   0.0000       0.813587        22.1388 
  83   0.0000       0.840226        22.8637 
  84   0.0000       0.867599        23.6086 
  85   0.0000       0.911765        24.8104 
  86   0.0000       0.929260        25.2865 
  87   0.0000       0.941821        25.6283 
  88   0.0000       0.990975        26.9658 
  89   0.0000       1.010020        27.4840 
  90   0.0000       1.046185        28.4681 
  91   0.0000       1.067581        29.0504 
  92   0.0000       1.079806        29.3830 
  93   0.0000       1.097459        29.8634 
  94   0.0000       1.130495        30.7623 
  95   0.0000       1.143034        31.1035 
  96   0.0000       1.154141        31.4058 
  97   0.0000       1.173023        31.9196 
  98   0.0000       1.193090        32.4656 
  99   0.0000       1.201213        32.6867 
 100   0.0000       1.220581        33.2137 
 101   0.0000       1.244315        33.8595 
 102   0.0000       1.305234        35.5172 
 103   0.0000       1.350408        36.7465 
 104   0.0000       1.365708        37.1628 
 105   0.0000       1.395755        37.9804 
 106   0.0000       1.404857        38.2281 
 107   0.0000       1.432536        38.9813 
 108   0.0000       1.461059        39.7574 
 109   0.0000       1.463140        39.8141 
 110   0.0000       1.464466        39.8501 
 111   0.0000       1.479713        40.2650 
 112   0.0000       1.498489        40.7760 
 113   0.0000       1.510171        41.0939 
 114   0.0000       1.531586        41.6766 
 115   0.0000       1.545677        42.0600 
 116   0.0000       1.563225        42.5375 
 117   0.0000       1.600151        43.5423 
 118   0.0000       1.624943        44.2169 
 119   0.0000       1.650095        44.9014 
 120   0.0000       1.668281        45.3962 
 121   0.0000       1.684483        45.8371 
 122   0.0000       1.694594        46.1122 
 123   0.0000       1.711134        46.5623 
 124   0.0000       1.717154        46.7261 
 125   0.0000       1.734399        47.1954 
 126   0.0000       1.744818        47.4789 
 127   0.0000       1.757862        47.8339 
 128   0.0000       1.774337        48.2822 
 129   0.0000       1.791577        48.7513 
 130   0.0000       1.834724        49.9254 
 131   0.0000       1.859658        50.6039 
 132   0.0000       1.901321        51.7376 
 133   0.0000       1.909266        51.9538 
 134   0.0000       1.928215        52.4694 
 135   0.0000       1.943718        52.8912 
 136   0.0000       1.946086        52.9557 
 137   0.0000       1.997935        54.3666 
 138   0.0000       2.012706        54.7685 
 139   0.0000       2.025249        55.1098 
 140   0.0000       2.031886        55.2904 
 141   0.0000       2.065142        56.1954 
 142   0.0000       2.103653        57.2433 
 143   0.0000       2.125345        57.8336 
 144   0.0000       2.140408        58.2435 
 145   0.0000       2.163395        58.8690 
 146   0.0000       2.200825        59.8875 
 147   0.0000       2.258136        61.4470 
 148   0.0000       2.265936        61.6592 
 149   0.0000       2.281016        62.0696 
 150   0.0000       2.308963        62.8301 
 151   0.0000       2.313931        62.9653 
 152   0.0000       2.339098        63.6501 
 153   0.0000       2.367721        64.4290 
 154   0.0000       2.375854        64.6503 
 155   0.0000       2.403692        65.4078 
 156   0.0000       2.420759        65.8722 
 157   0.0000       2.449785        66.6620 
 158   0.0000       2.476848        67.3985 
 159   0.0000       2.486968        67.6738 
 160   0.0000       2.510904        68.3252 
 161   0.0000       2.541734        69.1641 
 162   0.0000       2.564070        69.7719 
 163   0.0000       2.576745        70.1168 
 164   0.0000       2.599439        70.7343 
 165   0.0000       2.626238        71.4636 
 166   0.0000       2.654997        72.2462 
 167   0.0000       2.666723        72.5652 
 168   0.0000       2.674770        72.7842 
 169   0.0000       2.688716        73.1637 
 170   0.0000       2.703987        73.5792 
 171   0.0000       2.736060        74.4520 
 172   0.0000       2.742703        74.6327 
 173   0.0000       2.784111        75.7595 
 174   0.0000       2.806069        76.3570 
 175   0.0000       2.849120        77.5285 
 176   0.0000       2.867915        78.0399 
 177   0.0000       2.886180        78.5370 
 178   0.0000       2.931063        79.7583 
 179   0.0000       2.961444        80.5850 
 180   0.0000       2.981967        81.1435 
 181   0.0000       2.996045        81.5265 
 182   0.0000       3.032707        82.5241 
 183   0.0000       3.055242        83.1374 
 184   0.0000       3.079692        83.8027 
 185   0.0000       3.083714        83.9121 
 186   0.0000       3.106916        84.5435 
 187   0.0000       3.122681        84.9725 
 188   0.0000       3.127529        85.1044 
 189   0.0000       3.145753        85.6003 
 190   0.0000       3.170756        86.2807 
 191   0.0000       3.182397        86.5974 
 192   0.0000       3.223832        87.7249 
 193   0.0000       3.245612        88.3176 
 194   0.0000       3.254958        88.5719 
 195   0.0000       3.257500        88.6411 
 196   0.0000       3.273087        89.0652 
 197   0.0000       3.277285        89.1794 
 198   0.0000       3.304245        89.9131 
 199   0.0000       3.332956        90.6943 
 200   0.0000       3.342549        90.9554 
 201   0.0000       3.364836        91.5619 
 202   0.0000       3.369469        91.6879 
 203   0.0000       3.386507        92.1515 
 204   0.0000       3.418119        93.0118 
 205   0.0000       3.431742        93.3824 
 206   0.0000       3.451047        93.9078 
 207   0.0000       3.468784        94.3904 
 208   0.0000       3.495992        95.1308 
 209   0.0000       3.507855        95.4536 
 210   0.0000       3.536529        96.2338 
 211   0.0000       3.584838        97.5484 
 212   0.0000       3.590894        97.7132 
 213   0.0000       3.613579        98.3305 
 214   0.0000       3.648626        99.2842 
 215   0.0000       3.655510        99.4715 
 216   0.0000       3.698008       100.6279 
 217   0.0000       3.760950       102.3406 
 218   0.0000       3.794443       103.2520 
 219   0.0000       3.832475       104.2869 
 220   0.0000       3.844975       104.6271 
 221   0.0000       3.865981       105.1987 
 222   0.0000       3.897539       106.0574 
 223   0.0000       3.915896       106.5569 
 224   0.0000       4.024259       109.5057 
 225   0.0000       4.036614       109.8418 
 226   0.0000       4.068147       110.6999 
 227   0.0000       4.090510       111.3084 
 228   0.0000       4.138238       112.6072 
 229   0.0000       4.202947       114.3680 
 230   0.0000       4.226732       115.0152 
 231   0.0000       4.240779       115.3975 
 232   0.0000       4.276270       116.3632 
 233   0.0000       4.339474       118.0831 
 234   0.0000       4.399807       119.7248 
 235   0.0000       4.451087       121.1202 
 236   0.0000       4.483099       121.9913 
 237   0.0000       4.484158       122.0202 
 238   0.0000       4.548643       123.7749 
 239   0.0000       4.574591       124.4810 
 240   0.0000       4.587525       124.8329 
 241   0.0000       4.642329       126.3242 
 242   0.0000       4.787763       130.2817 
 243   0.0000       4.813618       130.9852 
 244   0.0000       4.845161       131.8435 
 245   0.0000       4.904810       133.4667 
 246   0.0000       4.934746       134.2813 
 247   0.0000       5.062422       137.7555 
 248   0.0000       5.122827       139.3992 
 249   0.0000       5.135743       139.7507 
 250   0.0000       5.190757       141.2477 
 251   0.0000       5.214334       141.8892 
 252   0.0000       5.281546       143.7182 
 253   0.0000       5.292760       144.0233 
 254   0.0000       5.335226       145.1789 
 255   0.0000       5.338398       145.2652 
 256   0.0000       5.418097       147.4339 
 257   0.0000       5.495178       149.5314 
 258   0.0000       5.636495       153.3768 
 259   0.0000       5.698232       155.0568 
 260   0.0000       5.753402       156.5580 
 261   0.0000       5.889756       160.2684 
 262   0.0000       6.107872       166.2036 
 263   0.0000       6.343882       172.6258 
 264   0.0000       6.484671       176.4569 
 265   0.0000       6.533669       177.7902 
 266   0.0000       6.611588       179.9104 
 267   0.0000       6.911948       188.0837 
 268   0.0000       7.052812       191.9168 
 269   0.0000       7.136977       194.2070 
 270   0.0000      22.251635       605.4978 
 271   0.0000      22.390307       609.2712 
 272   0.0000      22.485527       611.8623 
 273   0.0000      22.856019       621.9439 
 274   0.0000      22.984599       625.4427 
 275   0.0000      32.370088       880.8349 
 276   0.0000      43.796485      1191.7629 

                 SPIN DOWN ORBITALS
  NO   OCC          E(Eh)            E(eV) 
   0   1.0000     -19.163129      -521.4553 
   1   1.0000     -14.438644      -392.8955 
   2   1.0000     -10.369851      -282.1780 
   3   1.0000     -10.320681      -280.8400 
   4   1.0000     -10.270633      -279.4781 
   5   1.0000     -10.242047      -278.7003 
   6   1.0000     -10.241223      -278.6778 
   7   1.0000      -1.139399       -31.0046 
   8   1.0000      -1.048955       -28.5435 
   9   1.0000      -0.940558       -25.5939 
  10   1.0000      -0.832486       -22.6531 
  11   1.0000      -0.811006       -22.0686 
  12   1.0000      -0.719124       -19.5684 
  13   1.0000      -0.658071       -17.9070 
  14   1.0000      -0.637557       -17.3488 
  15   1.0000      -0.583209       -15.8699 
  16   1.0000      -0.571284       -15.5454 
  17   1.0000      -0.549071       -14.9410 
  18   1.0000      -0.527612       -14.3570 
  19   1.0000      -0.518889       -14.1197 
  20   1.0000      -0.502266       -13.6673 
  21   1.0000      -0.476478       -12.9656 
  22   1.0000      -0.468232       -12.7413 
  23   1.0000      -0.449206       -12.2235 
  24   1.0000      -0.375478       -10.2173 
  25   1.0000      -0.365765        -9.9530 
  26   1.0000      -0.338923        -9.2226 
  27   0.0000       0.084006         2.2859 
  28   0.0000       0.094260         2.5649 
  29   0.0000       0.112339         3.0569 
  30   0.0000       0.133480         3.6322 
  31   0.0000       0.164893         4.4870 
  32   0.0000       0.169576         4.6144 
  33   0.0000       0.171763         4.6739 
  34   0.0000       0.184973         5.0334 
  35   0.0000       0.206724         5.6252 
  36   0.0000       0.213063         5.7977 
  37   0.0000       0.214683         5.8418 
  38   0.0000       0.238690         6.4951 
  39   0.0000       0.247826         6.7437 
  40   0.0000       0.257212         6.9991 
  41   0.0000       0.270249         7.3538 
  42   0.0000       0.280580         7.6350 
  43   0.0000       0.298880         8.1329 
  44   0.0000       0.324924         8.8416 
  45   0.0000       0.330030         8.9806 
  46   0.0000       0.347128         9.4458 
  47   0.0000       0.353957         9.6317 
  48   0.0000       0.366499         9.9729 
  49   0.0000       0.378284        10.2936 
  50   0.0000       0.403790        10.9877 
  51   0.0000       0.420624        11.4458 
  52   0.0000       0.431881        11.7521 
  53   0.0000       0.441530        12.0146 
  54   0.0000       0.463216        12.6047 
  55   0.0000       0.466145        12.6845 
  56   0.0000       0.476825        12.9751 
  57   0.0000       0.493427        13.4268 
  58   0.0000       0.498278        13.5588 
  59   0.0000       0.523095        14.2341 
  60   0.0000       0.529938        14.4203 
  61   0.0000       0.530553        14.4371 
  62   0.0000       0.547840        14.9075 
  63   0.0000       0.567062        15.4305 
  64   0.0000       0.577556        15.7161 
  65   0.0000       0.580800        15.8044 
  66   0.0000       0.591293        16.0899 
  67   0.0000       0.599440        16.3116 
  68   0.0000       0.600422        16.3383 
  69   0.0000       0.613144        16.6845 
  70   0.0000       0.624531        16.9944 
  71   0.0000       0.627506        17.0753 
  72   0.0000       0.632995        17.2247 
  73   0.0000       0.653324        17.7778 
  74   0.0000       0.682368        18.5682 
  75   0.0000       0.709564        19.3082 
  76   0.0000       0.711331        19.3563 
  77   0.0000       0.717759        19.5312 
  78   0.0000       0.753980        20.5168 
  79   0.0000       0.783699        21.3255 
  80   0.0000       0.807425        21.9711 
  81   0.0000       0.815980        22.2039 
  82   0.0000       0.841107        22.8877 
  83   0.0000       0.867719        23.6118 
  84   0.0000       0.912395        24.8275 
  85   0.0000       0.930062        25.3083 
  86   0.0000       0.941934        25.6313 
  87   0.0000       0.991103        26.9693 
  88   0.0000       1.010654        27.5013 
  89   0.0000       1.047691        28.5091 
  90   0.0000       1.067728        29.0544 
  91   0.0000       1.079746        29.3814 
  92   0.0000       1.097649        29.8685 
  93   0.0000       1.131086        30.7784 
  94   0.0000       1.143439        31.1145 
  95   0.0000       1.154186        31.4070 
  96   0.0000       1.172822        31.9141 
  97   0.0000       1.193196        32.4685 
  98   0.0000       1.201303        32.6891 
  99   0.0000       1.222586        33.2683 
 100   0.0000       1.244966        33.8772 
 101   0.0000       1.287249        35.0278 
 102   0.0000       1.307092        35.5678 
 103   0.0000       1.351154        36.7668 
 104   0.0000       1.366487        37.1840 
 105   0.0000       1.395864        37.9834 
 106   0.0000       1.406234        38.2656 
 107   0.0000       1.436641        39.0930 
 108   0.0000       1.479333        40.2547 
 109   0.0000       1.490542        40.5597 
 110   0.0000       1.505485        40.9663 
 111   0.0000       1.532070        41.6897 
 112   0.0000       1.541707        41.9520 
 113   0.0000       1.560467        42.4625 
 114   0.0000       1.600044        43.5394 
 115   0.0000       1.624671        44.2095 
 116   0.0000       1.650085        44.9011 
 117   0.0000       1.667978        45.3880 
 118   0.0000       1.682750        45.7900 
 119   0.0000       1.694766        46.1169 
 120   0.0000       1.711320        46.5674 
 121   0.0000       1.716602        46.7111 
 122   0.0000       1.734438        47.1965 
 123   0.0000       1.745119        47.4871 
 124   0.0000       1.757737        47.8305 
 125   0.0000       1.773056        48.2473 
 126   0.0000       1.791439        48.7475 
 127   0.0000       1.833429        49.8901 
 128   0.0000       1.859704        50.6051 
 129   0.0000       1.900718        51.7212 
 130   0.0000       1.909421        51.9580 
 131   0.0000       1.927877        52.4602 
 132   0.0000       1.943592        52.8878 
 133   0.0000       1.946105        52.9562 
 134   0.0000       1.998226        54.3745 
 135   0.0000       2.012857        54.7726 
 136   0.0000       2.025522        55.1173 
 137   0.0000       2.031920        55.2914 
 138   0.0000       2.065246        56.1982 
 139   0.0000       2.103658        57.2434 
 140   0.0000       2.125367        57.8342 
 141   0.0000       2.140451        58.2446 
 142   0.0000       2.163462        58.8708 
 143   0.0000       2.200324        59.8739 
 144   0.0000       2.258978        61.4699 
 145   0.0000       2.265918        61.6588 
 146   0.0000       2.280960        62.0681 
 147   0.0000       2.311950        62.9113 
 148   0.0000       2.338460        63.6327 
 149   0.0000       2.367573        64.4249 
 150   0.0000       2.375836        64.6498 
 151   0.0000       2.403294        65.3969 
 152   0.0000       2.420387        65.8621 
 153   0.0000       2.449534        66.6552 
 154   0.0000       2.476676        67.3938 
 155   0.0000       2.486341        67.6568 
 156   0.0000       2.510636        68.3179 
 157   0.0000       2.539122        69.0930 
 158   0.0000       2.563062        69.7445 
 159   0.0000       2.576387        70.1071 
 160   0.0000       2.597314        70.6765 
 161   0.0000       2.624929        71.4280 
 162   0.0000       2.649939        72.1085 
 163   0.0000       2.651364        72.1473 
 164   0.0000       2.654206        72.2246 
 165   0.0000       2.658204        72.3334 
 166   0.0000       2.666733        72.5655 
 167   0.0000       2.679831        72.9219 
 168   0.0000       2.695413        73.3459 
 169   0.0000       2.705713        73.6262 
 170   0.0000       2.738724        74.5245 
 171   0.0000       2.742863        74.6371 
 172   0.0000       2.785765        75.8045 
 173   0.0000       2.806097        76.3578 
 174   0.0000       2.849092        77.5277 
 175   0.0000       2.867941        78.0406 
 176   0.0000       2.886342        78.5414 
 177   0.0000       2.931601        79.7729 
 178   0.0000       2.961903        80.5975 
 179   0.0000       2.982398        81.1552 
 180   0.0000       2.995927        81.5233 
 181   0.0000       3.032710        82.5242 
 182   0.0000       3.055360        83.1406 
 183   0.0000       3.079684        83.8025 
 184   0.0000       3.083631        83.9099 
 185   0.0000       3.107070        84.5477 
 186   0.0000       3.122695        84.9728 
 187   0.0000       3.127544        85.1048 
 188   0.0000       3.145760        85.6005 
 189   0.0000       3.170855        86.2834 
 190   0.0000       3.182380        86.5970 
 191   0.0000       3.223822        87.7247 
 192   0.0000       3.245727        88.3207 
 193   0.0000       3.254991        88.5728 
 194   0.0000       3.257337        88.6367 
 195   0.0000       3.273085        89.0652 
 196   0.0000       3.277400        89.1826 
 197   0.0000       3.304267        89.9137 
 198   0.0000       3.332941        90.6939 
 199   0.0000       3.342529        90.9548 
 200   0.0000       3.364871        91.5628 
 201   0.0000       3.369494        91.6886 
 202   0.0000       3.386462        92.1503 
 203   0.0000       3.418259        93.0156 
 204   0.0000       3.431779        93.3835 
 205   0.0000       3.451035        93.9074 
 206   0.0000       3.468785        94.3904 
 207   0.0000       3.496107        95.1339 
 208   0.0000       3.507852        95.4535 
 209   0.0000       3.536586        96.2354 
 210   0.0000       3.584891        97.5499 
 211   0.0000       3.590864        97.7124 
 212   0.0000       3.613585        98.3306 
 213   0.0000       3.646820        99.2350 
 214   0.0000       3.655542        99.4723 
 215   0.0000       3.667596        99.8004 
 216   0.0000       3.698082       100.6299 
 217   0.0000       3.761222       102.3481 
 218   0.0000       3.794558       103.2552 
 219   0.0000       3.832687       104.2927 
 220   0.0000       3.845013       104.6281 
 221   0.0000       3.866034       105.2001 
 222   0.0000       3.897579       106.0585 
 223   0.0000       3.916034       106.5607 
 224   0.0000       4.024414       109.5099 
 225   0.0000       4.036703       109.8443 
 226   0.0000       4.068390       110.7065 
 227   0.0000       4.090626       111.3116 
 228   0.0000       4.138285       112.6085 
 229   0.0000       4.203081       114.3716 
 230   0.0000       4.227104       115.0253 
 231   0.0000       4.240807       115.3982 
 232   0.0000       4.276280       116.3635 
 233   0.0000       4.339623       118.0872 
 234   0.0000       4.400191       119.7353 
 235   0.0000       4.451091       121.1204 
 236   0.0000       4.483141       121.9925 
 237   0.0000       4.484169       122.0204 
 238   0.0000       4.548683       123.7759 
 239   0.0000       4.574646       124.4825 
 240   0.0000       4.587546       124.8335 
 241   0.0000       4.642424       126.3268 
 242   0.0000       4.787811       130.2829 
 243   0.0000       4.813644       130.9859 
 244   0.0000       4.845257       131.8461 
 245   0.0000       4.904912       133.4694 
 246   0.0000       4.934798       134.2827 
 247   0.0000       5.062474       137.7569 
 248   0.0000       5.122865       139.4002 
 249   0.0000       5.135777       139.7516 
 250   0.0000       5.190779       141.2483 
 251   0.0000       5.214398       141.8910 
 252   0.0000       5.281573       143.7189 
 253   0.0000       5.292785       144.0240 
 254   0.0000       5.335226       145.1789 
 255   0.0000       5.338410       145.2655 
 256   0.0000       5.418105       147.4341 
 257   0.0000       5.495187       149.5316 
 258   0.0000       5.636533       153.3779 
 259   0.0000       5.698235       155.0569 
 260   0.0000       5.753422       156.5586 
 261   0.0000       5.889794       160.2694 
 262   0.0000       6.107878       166.2038 
 263   0.0000       6.343888       172.6260 
 264   0.0000       6.484670       176.4568 
 265   0.0000       6.533669       177.7902 
 266   0.0000       6.611590       179.9105 
 267   0.0000       6.911947       188.0836 
 268   0.0000       7.052813       191.9168 
 269   0.0000       7.136979       194.2071 
 270   0.0000      22.251638       605.4978 
 271   0.0000      22.390332       609.2719 
 272   0.0000      22.485531       611.8624 
 273   0.0000      22.856025       621.9441 
 274   0.0000      22.984611       625.4431 
 275   0.0000      32.370094       880.8350 
 276   0.0000      43.796487      1191.7630 

                    ********************************
                    * MULLIKEN POPULATION ANALYSIS *
                    ********************************

--------------------------------------------
MULLIKEN ATOMIC CHARGES AND SPIN POPULATIONS
--------------------------------------------
   0 C :    0.046971    0.004681
   1 C :    0.254166    0.000780
   2 C :   -0.277027   -0.003903
   3 C :   -0.103860   -0.006231
   4 C :   -0.333237   -0.000107
   5 N :   -0.325675   -0.000166
   6 O :   -0.431511   -0.000104
   7 H :    0.001321    0.998892
   8 H :    0.087418   -0.000178
   9 H :    0.109759    0.001913
  10 H :    0.118113    0.000099
  11 H :    0.129140   -0.000172
  12 H :    0.120561    0.004203
  13 H :    0.144866    0.000038
  14 H :    0.113348    0.000051
  15 H :    0.105319    0.000025
  16 H :    0.240326    0.000177
Sum of atomic charges         :    0.0000000
Sum of atomic spin populations:    1.0000000

-----------------------------------------------------
MULLIKEN REDUCED ORBITAL CHARGES AND SPIN POPULATIONS
-----------------------------------------------------
CHARGE
  0 C s       :     3.126657  s :     3.126657
      pz      :     0.926117  p :     2.680407
      px      :     0.868805
      py      :     0.885484
      dz2     :     0.028816  d :     0.135883
      dxz     :     0.031880
      dyz     :     0.019254
      dx2y2   :     0.027730
      dxy     :     0.028203
      f0      :     0.001574  f :     0.010082
      f+1     :     0.001093
      f-1     :     0.001257
      f+2     :     0.002402
      f-2     :     0.001106
      f+3     :     0.000912
      f-3     :     0.001737
  1 C s       :     3.117491  s :     3.117491
      pz      :     0.920510  p :     2.416874
      px      :     0.768933
      py      :     0.727431
      dz2     :     0.052103  d :     0.194226
      dxz     :     0.012419
      dyz     :     0.036717
      dx2y2   :     0.035140
      dxy     :     0.057847
      f0      :     0.001259  f :     0.017243
      f+1     :     0.000584
      f-1     :     0.004424
      f+2     :     0.002693
      f-2     :     0.002514
      f+3     :     0.003085
      f-3     :     0.002683
  2 C s       :     3.259325  s :     3.259325
      pz      :     0.971042  p :     2.963287
      px      :     0.992982
      py      :     0.999262
      dz2     :     0.012436  d :     0.049429
      dxz     :     0.009092
      dyz     :     0.010756
      dx2y2   :     0.011907
      dxy     :     0.005238
      f0      :     0.000941  f :     0.004986
      f+1     :     0.000631
      f-1     :     0.000698
      f+2     :     0.001196
      f-2     :     0.000770
      f+3     :     0.000382
      f-3     :     0.000367
  3 C s       :     3.248373  s :     3.248373
      pz      :     0.756815  p :     2.746557
      px      :     1.016056
      py      :     0.973686
      dz2     :     0.030983  d :     0.102121
      dxz     :     0.025905
      dyz     :     0.017306
      dx2y2   :     0.016229
      dxy     :     0.011697
      f0      :     0.001416  f :     0.006809
      f+1     :     0.001441
      f-1     :     0.001721
      f+2     :     0.000668
      f-2     :     0.000661
      f+3     :     0.000633
      f-3     :     0.000267
  4 C s       :     3.283282  s :     3.283282
      pz      :     1.087373  p :     3.001819
      px      :     0.882737
      py      :     1.031709
      dz2     :     0.007171  d :     0.045486
      dxz     :     0.012545
      dyz     :     0.003433
      dx2y2   :     0.005476
      dxy     :     0.016862
      f0      :     0.000339  f :     0.002650
      f+1     :     0.000226
      f-1     :     0.000513
      f+2     :     0.000375
      f-2     :    -0.000067
      f+3     :     0.000651
      f-3     :     0.000613
  5 N s       :     3.439132  s :     3.439132
      pz      :     1.111282  p :     3.830231
      px      :     1.597590
      py      :     1.121359
      dz2     :     0.012005  d :     0.052538
      dxz     :     0.008042
      dyz     :     0.019608
      dx2y2   :     0.005892
      dxy     :     0.006990
      f0      :     0.000578  f :     0.003774
      f+1     :     0.000357
      f-1     :     0.000650
      f+2     :     0.000573
      f-2     :     0.000351
      f+3     :     0.000692
      f-3     :     0.000573
  6 O s       :     3.867384  s :     3.867384
      pz      :     1.639018  p :     4.532300
      px      :     1.429683
      py      :     1.463599
      dz2     :     0.004263  d :     0.030142
      dxz     :     0.002945
      dyz     :     0.008551
      dx2y2   :     0.006916
      dxy     :     0.007465
      f0      :     0.000164  f :     0.001685
      f+1     :     0.000038
      f-1     :     0.000385
      f+2     :     0.000321
      f-2     :     0.000307
      f+3     :     0.000223
      f-3     :     0.000248
  7 H s       :     0.998677  s :     0.998677
      pz      :     0.000000  p :     0.000002
      px      :     0.000001
      py      :     0.000001
  8 H s       :     0.892940  s :     0.892940
      pz      :     0.014524  p :     0.019642
      px      :     0.003100
      py      :     0.002017
  9 H s       :     0.866832  s :     0.866832
      pz      :     0.004119  p :     0.023409
      px      :     0.014641
      py      :     0.004648
 10 H s       :     0.858931  s :     0.858931
      pz      :     0.008757  p :     0.022956
      px      :     0.005137
      py      :     0.009062
 11 H s       :     0.850784  s :     0.850784
      pz      :     0.002691  p :     0.020076
      px      :     0.005316
      py      :     0.012069
 12 H s       :     0.858465  s :     0.858465
      pz      :     0.004290  p :     0.020975
      px      :     0.013023
      py      :     0.003661
 13 H s       :     0.831793  s :     0.831793
      pz      :     0.012486  p :     0.023340
      px      :     0.004541
      py      :     0.006314
 14 H s       :     0.864183  s :     0.864183
      pz      :     0.008822  p :     0.022469
      px      :     0.005707
      py      :     0.007940
 15 H s       :     0.872436  s :     0.872436
      pz      :     0.004266  p :     0.022245
      px      :     0.006938
      py      :     0.011041
 16 H s       :     0.722779  s :     0.722779
      pz      :     0.012248  p :     0.036895
      px      :     0.012447
      py      :     0.012199

SPIN
  0 C s       :     0.000846  s :     0.000846
      pz      :     0.000103  p :     0.003984
      px      :     0.003959
      py      :    -0.000078
      dz2     :    -0.000026  d :    -0.000150
      dxz     :    -0.000016
      dyz     :    -0.000009
      dx2y2   :    -0.000067
      dxy     :    -0.000031
      f0      :    -0.000001  f :    -0.000000
      f+1     :     0.000000
      f-1     :     0.000000
      f+2     :     0.000000
      f-2     :    -0.000000
      f+3     :    -0.000000
      f-3     :    -0.000000
  1 C s       :     0.000493  s :     0.000493
      pz      :     0.000038  p :     0.000287
      px      :     0.000279
      py      :    -0.000031
      dz2     :    -0.000007  d :    -0.000001
      dxz     :     0.000002
      dyz     :    -0.000002
      dx2y2   :    -0.000002
      dxy     :     0.000009
      f0      :     0.000000  f :     0.000001
      f+1     :    -0.000000
      f-1     :     0.000001
      f+2     :     0.000001
      f-2     :     0.000000
      f+3     :     0.000000
      f-3     :    -0.000001
  2 C s       :    -0.001175  s :    -0.001175
      pz      :    -0.000320  p :    -0.002816
      px      :    -0.001982
      py      :    -0.000514
      dz2     :     0.000018  d :     0.000087
      dxz     :     0.000002
      dyz     :     0.000001
      dx2y2   :     0.000052
      dxy     :     0.000014
      f0      :     0.000000  f :     0.000002
      f+1     :     0.000001
      f-1     :    -0.000000
      f+2     :     0.000000
      f-2     :    -0.000001
      f+3     :     0.000001
      f-3     :     0.000001
  3 C s       :    -0.005148  s :    -0.005148
      pz      :    -0.000473  p :    -0.001517
      px      :    -0.000863
      py      :    -0.000181
      dz2     :     0.000039  d :     0.000419
      dxz     :     0.000149
      dyz     :     0.000001
      dx2y2   :     0.000179
      dxy     :     0.000050
      f0      :     0.000003  f :     0.000016
      f+1     :     0.000003
      f-1     :    -0.000001
      f+2     :     0.000007
      f-2     :    -0.000001
      f+3     :     0.000003
      f-3     :     0.000001
  4 C s       :    -0.000351  s :    -0.000351
      pz      :     0.000009  p :     0.000238
      px      :     0.000238
      py      :    -0.000008
      dz2     :     0.000000  d :     0.000005
      dxz     :     0.000004
      dyz     :    -0.000003
      dx2y2   :     0.000000
      dxy     :     0.000004
      f0      :     0.000000  f :     0.000000
      f+1     :    -0.000000
      f-1     :    -0.000000
      f+2     :     0.000000
      f-2     :    -0.000000
      f+3     :     0.000000
      f-3     :     0.000000
  5 N s       :     0.000001  s :     0.000001
      pz      :     0.000099  p :    -0.000176
      px      :    -0.000138
      py      :    -0.000137
      dz2     :    -0.000001  d :     0.000010
      dxz     :     0.000012
      dyz     :     0.000005
      dx2y2   :    -0.000006
      dxy     :    -0.000000
      f0      :    -0.000000  f :     0.000000
      f+1     :     0.000000
      f-1     :    -0.000000
      f+2     :    -0.000000
      f-2     :     0.000000
      f+3     :     0.000000
      f-3     :    -0.000000
  6 O s       :    -0.000018  s :    -0.000018
      pz      :    -0.000006  p :    -0.000085
      px      :    -0.000084
      py      :     0.000005
      dz2     :     0.000000  d :    -0.000000
      dxz     :    -0.000000
      dyz     :     0.000000
      dx2y2   :     0.000001
      dxy     :    -0.000001
[...]
  414     dE    -1.979902e-07     2.377524e-05                           (NR   MIcro)
  414     dE    -1.982487e-07     8.915590e-06                           (NR   MIcro)
  414     dE    -1.982794e-07     1.068198e-06                           (NR   MIcro)
  415       -326.453831204247     9.135327e-05                           (NR   MAcro)
  415     dE    -3.698485e-09     3.166224e-06                           (NR   MIcro)
  415     dE    -3.703066e-09     6.360757e-07                           (NR   MIcro)
  416       -326.453831211228     9.229139e-05                           (NR   MAcro)
  416     dE    -3.728796e-09     3.164159e-06                           (NR   MIcro)
  416     dE    -3.733071e-09     1.193906e-06                           (NR   MIcro)
  416     dE    -3.733653e-09     1.148357e-07                           (NR   MIcro)
  417       -326.453831222374     2.053805e-04                           (NR   MAcro)
  417     dE    -1.980246e-08     8.119827e-06                           (NR   MIcro)
  417     dE    -1.983745e-08     4.049073e-07                           (NR   MIcro)
  418       -326.453831205550     8.165254e-04                           (NR   MAcro)
  418     dE    -3.536772e-07     5.477020e-05                           (NR   MIcro)
  418     dE    -3.546415e-07     2.552712e-06                           (NR   MIcro)
  419       -326.453830998401     6.729234e-04                           (NR   MAcro)
  419     dE    -1.951874e-07     2.279626e-05                           (NR   MIcro)
  419     dE    -1.954553e-07     3.637820e-06                           (NR   MIcro)
  420       -326.453831204267     9.126566e-05                           (NR   MAcro)
  420     dE    -3.679881e-09     6.224986e-06                           (NR   MIcro)
  420     dE    -3.692762e-09     1.919261e-06                           (NR   MIcro)
  420     dE    -3.694476e-09     1.749677e-07                           (NR   MIcro)
  421       -326.453831211244     9.245351e-05                           (NR   MAcro)
  421     dE    -3.736977e-09     3.025086e-06                           (NR   MIcro)
  421     dE    -3.741476e-09     2.697106e-07                           (NR   MIcro)
  422       -326.453831222430     2.059232e-04                           (NR   MAcro)
  422     dE    -1.991574e-08     8.159121e-06                           (NR   MIcro)
  422     dE    -1.995095e-08     6.113926e-07                           (NR   MIcro)
  423       -326.453831204875     8.201667e-04                           (NR   MAcro)
  423     dE    -3.580225e-07     5.583124e-05                           (NR   MIcro)
  423     dE    -3.590247e-07     2.141080e-06                           (NR   MIcro)
  424       -326.453830994163     6.797012e-04                           (NR   MAcro)
  424     dE    -1.992363e-07     2.298382e-05                           (NR   MIcro)
  424     dE    -1.995110e-07     2.376907e-06                           (NR   MIcro)
  425       -326.453831204247     9.137616e-05                           (NR   MAcro)
  425     dE    -3.696761e-09     3.980666e-06                           (NR   MIcro)
  425     dE    -3.703025e-09     1.592898e-06                           (NR   MIcro)
  425     dE    -3.704203e-09     2.516511e-07                           (NR   MIcro)
  426       -326.453831211227     9.234027e-05                           (NR   MAcro)
  426     dE    -3.728296e-09     3.037046e-06                           (NR   MIcro)
  426     dE    -3.732726e-09     5.794916e-07                           (NR   MIcro)
  427       -326.453831222371     2.053271e-04                           (NR   MAcro)
  427     dE    -1.980167e-08     8.172556e-06                           (NR   MIcro)
  427     dE    -1.983613e-08     1.567968e-06                           (NR   MIcro)
  427     dE    -1.983699e-08     2.336873e-07                           (NR   MIcro)
  428       -326.453831205567     8.165038e-04                           (NR   MAcro)
  428     dE    -3.535840e-07     5.476807e-05                           (NR   MIcro)
  428     dE    -3.545487e-07     2.145259e-06                           (NR   MIcro)
  429       -326.453830998492     6.727660e-04                           (NR   MAcro)
  429     dE    -1.951009e-07     2.273063e-05                           (NR   MIcro)
  429     dE    -1.953703e-07     2.466217e-06                           (NR   MIcro)
  430       -326.453831204268     9.131115e-05                           (NR   MAcro)
  430     dE    -3.685098e-09     4.479923e-06                           (NR   MIcro)
  430     dE    -3.691782e-09     1.855312e-06                           (NR   MIcro)
  430     dE    -3.693334e-09     1.167404e-07                           (NR   MIcro)
  431       -326.453831211242     9.245244e-05                           (NR   MAcro)
  431     dE    -3.736387e-09     3.019846e-06                           (NR   MIcro)
  431     dE    -3.740895e-09     1.465431e-07                           (NR   MIcro)
  432       -326.453831222424     2.058964e-04                           (NR   MAcro)
  432     dE    -1.990743e-08     8.151219e-06                           (NR   MIcro)
  432     dE    -1.994267e-08     4.109745e-07                           (NR   MIcro)
  433       -326.453831204924     8.198830e-04                           (NR   MAcro)
  433     dE    -3.576960e-07     5.573809e-05                           (NR   MIcro)
  433     dE    -3.586952e-07     1.968653e-06                           (NR   MIcro)
  434       -326.453830994479     6.791905e-04                           (NR   MAcro)
  434     dE    -1.989336e-07     2.293184e-05                           (NR   MIcro)
  434     dE    -1.992084e-07     1.805140e-06                           (NR   MIcro)
  435       -326.453831204244     9.140335e-05                           (NR   MAcro)
  435     dE    -3.697529e-09     3.469217e-06                           (NR   MIcro)
  435     dE    -3.702094e-09     1.506205e-06                           (NR   MIcro)
  435     dE    -3.702997e-09     1.588986e-07                           (NR   MIcro)
  436       -326.453831211227     9.235259e-05                           (NR   MAcro)
  436     dE    -3.728421e-09     3.020192e-06                           (NR   MIcro)
  436     dE    -3.732906e-09     2.647512e-07                           (NR   MIcro)
  437       -326.453831222373     2.053712e-04                           (NR   MAcro)
  437     dE    -1.980148e-08     8.129928e-06                           (NR   MIcro)
  437     dE    -1.983639e-08     6.989828e-07                           (NR   MIcro)
  438       -326.453831205556     8.165207e-04                           (NR   MAcro)
  438     dE    -3.536506e-07     5.476242e-05                           (NR   MIcro)
  438     dE    -3.546154e-07     1.952129e-06                           (NR   MIcro)
  439       -326.453830998430     6.728728e-04                           (NR   MAcro)
  439     dE    -1.951634e-07     2.282007e-05                           (NR   MIcro)
  439     dE    -1.954307e-07     3.873935e-06                           (NR   MIcro)
  440       -326.453831204277     9.123714e-05                           (NR   MAcro)
  440     dE    -3.677776e-09     6.603502e-06                           (NR   MIcro)
  440     dE    -3.693140e-09     1.929248e-06                           (NR   MIcro)
  440     dE    -3.694843e-09     3.110354e-07                           (NR   MIcro)
  441       -326.453831211246     9.243926e-05                           (NR   MAcro)
  441     dE    -3.737721e-09     3.043185e-06                           (NR   MIcro)
  441     dE    -3.742192e-09     5.029912e-07                           (NR   MIcro)
  442       -326.453831222434     2.059352e-04                           (NR   MAcro)
  442     dE    -1.992674e-08     8.180114e-06                           (NR   MIcro)
  442     dE    -1.996184e-08     1.017997e-06                           (NR   MIcro)
  442     dE    -1.996224e-08     2.256541e-07                           (NR   MIcro)
  443       -326.453831204823     8.205022e-04                           (NR   MAcro)
  443     dE    -3.583651e-07     5.593732e-05                           (NR   MIcro)
  443     dE    -3.593710e-07     2.048242e-06                           (NR   MIcro)
  444       -326.453830993825     6.802283e-04                           (NR   MAcro)
  444     dE    -1.995563e-07     2.297600e-05                           (NR   MIcro)
  444     dE    -1.998316e-07     2.112862e-06                           (NR   MIcro)
  445       -326.453831204237     9.140820e-05                           (NR   MAcro)
  445     dE    -3.698079e-09     3.957509e-06                           (NR   MIcro)
  445     dE    -3.703430e-09     1.784552e-06                           (NR   MIcro)
  445     dE    -3.704823e-09     1.151623e-07                           (NR   MIcro)
  446       -326.453831211225     9.234253e-05                           (NR   MAcro)
  446     dE    -3.727200e-09     3.015527e-06                           (NR   MIcro)
  446     dE    -3.731695e-09     1.392986e-07                           (NR   MIcro)
  447       -326.453831222364     2.053019e-04                           (NR   MAcro)
  447     dE    -1.978477e-08     8.117786e-06                           (NR   MIcro)
  447     dE    -1.981973e-08     3.969417e-07                           (NR   MIcro)
  448       -326.453831205656     8.159445e-04                           (NR   MAcro)
  448     dE    -3.529912e-07     5.459291e-05                           (NR   MIcro)
  448     dE    -3.539503e-07     1.870084e-06                           (NR   MIcro)
  449       -326.453830999062     6.718461e-04                           (NR   MAcro)
  449     dE    -1.945576e-07     2.267547e-05                           (NR   MIcro)
  449     dE    -1.948270e-07     1.697310e-06                           (NR   MIcro)
  450       -326.453831204273     9.132183e-05                           (NR   MAcro)
  450     dE    -3.686295e-09     3.360365e-06                           (NR   MIcro)
  450     dE    -3.690735e-09     1.404376e-06                           (NR   MIcro)
  450     dE    -3.691513e-09     1.260950e-07                           (NR   MIcro)
  451       -326.453831211244     9.246115e-05                           (NR   MAcro)
  451     dE    -3.737206e-09     3.020725e-06                           (NR   MIcro)
  451     dE    -3.741713e-09     1.668624e-07                           (NR   MIcro)
  452       -326.453831222430     2.059480e-04                           (NR   MAcro)
  452     dE    -1.991836e-08     8.155011e-06                           (NR   MIcro)
  452     dE    -1.995362e-08     4.592150e-07                           (NR   MIcro)
  453       -326.453831204859     8.202302e-04                           (NR   MAcro)
  453     dE    -3.581141e-07     5.583901e-05                           (NR   MIcro)
  453     dE    -3.591171e-07     1.746003e-06                           (NR   MIcro)
  454       -326.453830994068     6.798419e-04                           (NR   MAcro)
  454     dE    -1.993263e-07     2.295153e-05                           (NR   MIcro)
  454     dE    -1.996017e-07     1.670430e-06                           (NR   MIcro)
  455       -326.453831204242     9.141408e-05                           (NR   MAcro)
  455     dE    -3.698838e-09     3.324366e-06                           (NR   MIcro)
  455     dE    -3.703354e-09     1.272425e-06                           (NR   MIcro)
  455     dE    -3.703992e-09     1.524967e-07                           (NR   MIcro)
  456       -326.453831211225     9.234332e-05                           (NR   MAcro)
  456     dE    -3.727577e-09     3.018206e-06                           (NR   MIcro)
  456     dE    -3.732066e-09     2.259568e-07                           (NR   MIcro)
  457       -326.453831222367     2.053208e-04                           (NR   MAcro)
  457     dE    -1.978998e-08     8.122507e-06                           (NR   MIcro)
  457     dE    -1.982492e-08     5.538142e-07                           (NR   MIcro)
  458       -326.453831205624     8.161263e-04                           (NR   MAcro)
  458     dE    -3.531967e-07     5.467962e-05                           (NR   MIcro)
  458     dE    -3.541560e-07     3.463942e-06                           (NR   MIcro)
  459       -326.453830998871     6.721870e-04                           (NR   MAcro)
  459     dE    -1.947330e-07     2.300054e-05                           (NR   MIcro)
  459     dE    -1.949950e-07     6.100372e-06                           (NR   MIcro)
  459     dE    -1.950090e-07     1.045883e-06                           (NR   MIcro)
  460       -326.453831204269     9.128955e-05                           (NR   MAcro)
  460     dE    -3.689928e-09     3.159159e-06                           (NR   MIcro)
  460     dE    -3.694478e-09     6.746508e-07                           (NR   MIcro)
  461       -326.453831211240     9.237252e-05                           (NR   MAcro)
  461     dE    -3.735307e-09     3.206594e-06                           (NR   MIcro)
  461     dE    -3.739541e-09     1.319234e-06                           (NR   MIcro)
  461     dE    -3.740228e-09     8.761223e-08                           (NR   MIcro)
  462       -326.453831222417     2.058078e-04                           (NR   MAcro)
  462     dE    -1.989008e-08     8.142841e-06                           (NR   MIcro)
  462     dE    -1.992528e-08     3.696622e-07                           (NR   MIcro)
  463       -326.453831205027     8.193348e-04                           (NR   MAcro)
  463     dE    -3.570364e-07     5.557930e-05                           (NR   MIcro)
  463     dE    -3.580295e-07     2.262645e-06                           (NR   MIcro)
  464       -326.453830995125     6.781630e-04                           (NR   MAcro)
  464     dE    -1.983146e-07     2.292945e-05                           (NR   MIcro)
  464     dE    -1.985876e-07     2.791917e-06                           (NR   MIcro)
  465       -326.453831204245     9.136238e-05                           (NR   MAcro)
  465     dE    -3.692174e-09     4.964945e-06                           (NR   MIcro)
  465     dE    -3.700363e-09     1.889683e-06                           (NR   MIcro)
  465     dE    -3.701998e-09     1.247994e-07                           (NR   MIcro)
  466       -326.453831211230     9.237569e-05                           (NR   MAcro)
  466     dE    -3.730016e-09     3.017318e-06                           (NR   MIcro)
  466     dE    -3.734514e-09     1.554409e-07                           (NR   MIcro)
  467       -326.453831222383     2.054836e-04                           (NR   MAcro)
  467     dE    -1.982241e-08     8.128366e-06                           (NR   MIcro)
  467     dE    -1.985746e-08     4.135035e-07                           (NR   MIcro)
  468       -326.453831205432     8.171687e-04                           (NR   MAcro)
  468     dE    -3.544410e-07     5.494307e-05                           (NR   MIcro)
  468     dE    -3.554123e-07     1.932303e-06                           (NR   MIcro)
  469       -326.453830997658     6.741077e-04                           (NR   MAcro)
  469     dE    -1.958996e-07     2.275431e-05                           (NR   MIcro)
  469     dE    -1.961707e-07     1.756351e-06                           (NR   MIcro)
  470       -326.453831204265     9.134585e-05                           (NR   MAcro)
  470     dE    -3.689728e-09     3.399224e-06                           (NR   MIcro)
  470     dE    -3.694232e-09     1.423472e-06                           (NR   MIcro)
  470     dE    -3.695014e-09     1.593847e-07                           (NR   MIcro)
  471       -326.453831211240     9.242621e-05                           (NR   MAcro)
  471     dE    -3.734548e-09     3.022374e-06                           (NR   MIcro)
  471     dE    -3.739045e-09     2.485548e-07                           (NR   MIcro)
  472       -326.453831222414     2.057701e-04                           (NR   MAcro)
  472     dE    -1.988315e-08     8.150360e-06                           (NR   MIcro)
  472     dE    -1.991828e-08     6.501643e-07                           (NR   MIcro)
  473       -326.453831205069     8.191364e-04                           (NR   MAcro)
  473     dE    -3.567795e-07     5.551800e-05                           (NR   MIcro)
  473     dE    -3.577709e-07     1.854350e-06                           (NR   MIcro)
  474       -326.453830995381     6.777557e-04                           (NR   MAcro)
  474     dE    -1.980744e-07     2.295942e-05                           (NR   MIcro)
  474     dE    -1.983460e-07     3.502699e-06                           (NR   MIcro)
  475       -326.453831204256     9.132143e-05                           (NR   MAcro)
  475     dE    -3.687673e-09     6.079926e-06                           (NR   MIcro)
  475     dE    -3.700406e-09     1.923965e-06                           (NR   MIcro)
  475     dE    -3.702111e-09     2.542354e-07                           (NR   MIcro)
  476       -326.453831211234     9.237478e-05                           (NR   MAcro)
  476     dE    -3.731228e-09     3.029982e-06                           (NR   MIcro)
  476     dE    -3.735712e-09     3.760736e-07                           (NR   MIcro)
  477       -326.453831222392     2.055397e-04                           (NR   MAcro)
  477     dE    -1.983921e-08     8.143846e-06                           (NR   MIcro)
  477     dE    -1.987422e-08     7.338194e-07                           (NR   MIcro)
  478       -326.453831205332     8.177405e-04                           (NR   MAcro)
  478     dE    -3.550975e-07     5.515146e-05                           (NR   MIcro)
  478     dE    -3.560732e-07     3.500332e-06                           (NR   MIcro)
  479       -326.453830997033     6.751504e-04                           (NR   MAcro)
  479     dE    -1.964942e-07     2.306238e-05                           (NR   MIcro)
  479     dE    -1.967602e-07     5.587086e-06                           (NR   MIcro)
  479     dE    -1.967716e-07     1.077648e-06                           (NR   MIcro)

               *****************************************************
               *                      ERROR                        *
               *        SCF NOT CONVERGED AFTER 1605 CYCLES         *
               *****************************************************

Old exchange energy                            =     -0.088176291 Eh
New exchange energy                            =    -14.230435469 Eh
Exchange energy change after final integration =    -14.142259178 Eh
Total energy after final integration           =   -340.596090175 Eh
Final COS-X integration done in                =     1.569 sec
  Last Energy change         ...    0.0000e+00  Tolerance :   1.0000e-08
  Last Orbital Gradient      ...    6.7515e-04  Tolerance :   1.0000e-05
  Last Orbital Rotation      ...    3.2409e-04

     --------------------------------------------------------------------
                                      ERROR
     This wavefunction IS NOT CONVERGED! 
     And it is 'too far' from meeting the convergence thresholds.
     Aborting ...
     Please restart calculation (with larger maxiter?)
     --------------------------------------------------------------------



ORCA finished by error termination in SCF
Calling Command: mpirun -np 24  /depot/bsavoie/apps/orca_5_0_1_openmpi411/orca_scf_mpi 105772_0-TSOPT.gbw b 105772_0-TSOPT 
Check for SCF-logfiles
[file orca_main/maingopt.cpp, line 1201]: ORCA finished with an error in the energy calculation

