4
	Energy:     525.2968808
C          0.19378       -0.02799        0.00000
C         -0.70047        1.06474        0.00000
C          0.30030        1.73659        0.00000
C          1.19455        0.64386        0.00000
