11
	Energy:     105.7739965
C         -1.03936        1.08650       -0.01913
S          0.45819        2.06247       -0.32999
C          2.15468        1.46480       -0.09151
H         -1.86360        1.75430        0.30557
H          2.80706        2.30113        0.23362
O          0.31974        3.37926        0.45038
H         -1.33217        0.54062       -0.93953
H          2.53778        1.02746       -1.03641
H         -0.83294        0.36215        0.79531
H          2.15361        0.69120        0.70358
O          0.35914        2.62465       -1.75570
