
                                 *****************
                                 * O   R   C   A *
                                 *****************

                                            #,                                       
                                            ###                                      
                                            ####                                     
                                            #####                                    
                                            ######                                   
                                           ########,                                 
                                     ,,################,,,,,                         
                               ,,#################################,,                 
                          ,,##########################################,,             
                       ,#########################################, ''#####,          
                    ,#############################################,,   '####,        
                  ,##################################################,,,,####,       
                ,###########''''           ''''###############################       
              ,#####''   ,,,,##########,,,,          '''####'''          '####       
            ,##' ,,,,###########################,,,                        '##       
           ' ,,###''''                  '''############,,,                           
         ,,##''                                '''############,,,,        ,,,,,,###''
      ,#''                                            '''#######################'''  
     '                                                          ''''####''''         
             ,#######,   #######,   ,#######,      ##                                
            ,#'     '#,  ##    ##  ,#'     '#,    #''#        ######   ,####,        
            ##       ##  ##   ,#'  ##            #'  '#       #        #'  '#        
            ##       ##  #######   ##           ,######,      #####,   #    #        
            '#,     ,#'  ##    ##  '#,     ,#' ,#      #,         ##   #,  ,#        
             '#######'   ##     ##  '#######'  #'      '#     #####' # '####'        



                  #######################################################
                  #                        -***-                        #
                  #          Department of theory and spectroscopy      #
                  #    Directorship and core code : Frank Neese         #
                  #        Max Planck Institute fuer Kohlenforschung    #
                  #                Kaiser Wilhelm Platz 1               #
                  #                 D-45470 Muelheim/Ruhr               #
                  #                      Germany                        #
                  #                                                     #
                  #                  All rights reserved                #
                  #                        -***-                        #
                  #######################################################


                         Program Version 5.0.1 -  RELEASE  -


 With contributions from (in alphabetic order):
   Daniel Aravena         : Magnetic Suceptibility
   Michael Atanasov       : Ab Initio Ligand Field Theory (pilot matlab implementation)
   Alexander A. Auer      : GIAO ZORA, VPT2 properties, NMR spectrum
   Ute Becker             : Parallelization
   Giovanni Bistoni       : ED, misc. LED, open-shell LED, HFLD
   Martin Brehm           : Molecular dynamics
   Dmytro Bykov           : SCF Hessian
   Vijay G. Chilkuri      : MRCI spin determinant printing, contributions to CSF-ICE
   Dipayan Datta          : RHF DLPNO-CCSD density
   Achintya Kumar Dutta   : EOM-CC, STEOM-CC
   Dmitry Ganyushin       : Spin-Orbit,Spin-Spin,Magnetic field MRCI
   Miquel Garcia          : C-PCM and meta-GGA Hessian, CC/C-PCM, Gaussian charge scheme
   Yang Guo               : DLPNO-NEVPT2, F12-NEVPT2, CIM, IAO-localization
   Andreas Hansen         : Spin unrestricted coupled pair/coupled cluster methods
   Benjamin Helmich-Paris : MC-RPA, TRAH-SCF, COSX integrals
   Lee Huntington         : MR-EOM, pCC
   Robert Izsak           : Overlap fitted RIJCOSX, COSX-SCS-MP3, EOM
   Marcus Kettner         : VPT2
   Christian Kollmar      : KDIIS, OOCD, Brueckner-CCSD(T), CCSD density, CASPT2, CASPT2-K
   Simone Kossmann        : Meta GGA functionals, TD-DFT gradient, OOMP2, MP2 Hessian
   Martin Krupicka        : Initial AUTO-CI
   Lucas Lang             : DCDCAS
   Marvin Lechner         : AUTO-CI (C++ implementation), FIC-MRCC
   Dagmar Lenk            : GEPOL surface, SMD
   Dimitrios Liakos       : Extrapolation schemes; Compound Job, initial MDCI parallelization
   Dimitrios Manganas     : Further ROCIS development; embedding schemes
   Dimitrios Pantazis     : SARC Basis sets
   Anastasios Papadopoulos: AUTO-CI, single reference methods and gradients
   Taras Petrenko         : DFT Hessian,TD-DFT gradient, ASA, ECA, R-Raman, ABS, FL, XAS/XES, NRVS
   Peter Pinski           : DLPNO-MP2, DLPNO-MP2 Gradient
   Christoph Reimann      : Effective Core Potentials
   Marius Retegan         : Local ZFS, SOC
   Christoph Riplinger    : Optimizer, TS searches, QM/MM, DLPNO-CCSD(T), (RO)-DLPNO pert. Triples
   Tobias Risthaus        : Range-separated hybrids, TD-DFT gradient, RPA, STAB
   Michael Roemelt        : Original ROCIS implementation
   Masaaki Saitow         : Open-shell DLPNO-CCSD energy and density
   Barbara Sandhoefer     : DKH picture change effects
   Avijit Sen             : IP-ROCIS
   Kantharuban Sivalingam : CASSCF convergence, NEVPT2, FIC-MRCI
   Bernardo de Souza      : ESD, SOC TD-DFT
   Georgi Stoychev        : AutoAux, RI-MP2 NMR, DLPNO-MP2 response
   Willem Van den Heuvel  : Paramagnetic NMR
   Boris Wezisla          : Elementary symmetry handling
   Frank Wennmohs         : Technical directorship


 We gratefully acknowledge several colleagues who have allowed us to
 interface, adapt or use parts of their codes:
   Stefan Grimme, W. Hujo, H. Kruse, P. Pracht,  : VdW corrections, initial TS optimization,
                  C. Bannwarth, S. Ehlert          DFT functionals, gCP, sTDA/sTD-DF
   Ed Valeev, F. Pavosevic, A. Kumar             : LibInt (2-el integral package), F12 methods
   Garnet Chan, S. Sharma, J. Yang, R. Olivares  : DMRG
   Ulf Ekstrom                                   : XCFun DFT Library
   Mihaly Kallay                                 : mrcc  (arbitrary order and MRCC methods)
   Jiri Pittner, Ondrej Demel                    : Mk-CCSD
   Frank Weinhold                                : gennbo (NPA and NBO analysis)
   Christopher J. Cramer and Donald G. Truhlar   : smd solvation model
   Lars Goerigk                                  : TD-DFT with DH, B97 family of functionals
   V. Asgeirsson, H. Jonsson                     : NEB implementation
   FAccTs GmbH                                   : IRC, NEB, NEB-TS, DLPNO-Multilevel, CI-OPT
                                                   MM, QMMM, 2- and 3-layer-ONIOM, Crystal-QMMM,
                                                   LR-CPCM, SF, NACMEs, symmetry and pop. for TD-DFT,
                                                   nearIR, NL-DFT gradient (VV10), updates on ESD,
                                                   ML-optimized integration grids
   S Lehtola, MJT Oliveira, MAL Marques          : LibXC Library
   Liviu Ungur et al                             : ANISO software


 Your calculation uses the libint2 library for the computation of 2-el integrals
 For citations please refer to: http://libint.valeyev.net

 Your ORCA version has been built with support for libXC version: 5.1.0
 For citations please refer to: https://tddft.org/programs/libxc/

 This ORCA versions uses:
   CBLAS   interface :  Fast vector & matrix operations
   LAPACKE interface :  Fast linear algebra routines
   SCALAPACK package :  Parallel linear algebra routines
   Shared memory     :  Shared parallel matrices
   BLAS/LAPACK       :  OpenBLAS 0.3.15  USE64BITINT DYNAMIC_ARCH NO_AFFINITY Zen SINGLE_THREADED
        Core in use  :  Zen
   Copyright (c) 2011-2014, The OpenBLAS Project




***************************************
The coordinates will be read from file: /scratch/negishi/li1724/Test-CentralizedCode-4-5/DFT/JHVUUIQHEXNRLG-UHFFFAOYSA-N/JHVUUIQHEXNRLG-UHFFFAOYSA-N-FullTZ.xyz
***************************************


Your calculation utilizes the atom-pairwise dispersion correction
with the Becke-Johnson damping scheme (D3BJ)
Cite in your paper:
S.Grimme, S.Ehrlich, L.Goerigk, J Comput Chem, (2011), 32, 1456–1465 
S.Grimme, J.Antony, S.Ehrlich and H.Krieg, J.Chem.Phys., 132, (2010), 154104 
   

Your calculation employs the composite approach B97-3c by Grimme and coworkers.
For the correct reference, please check the publication list of the Grimme group:
http://www.thch.uni-bonn.de/tc/index.php?section=publikationen&subsection=grimme#2017
   

XCFun DFT library Copyright 2009-2010 Ulf Ekstrom and contributors.
See http://admol.org/xcfun for more information.
This is free software; see the source code for copying conditions.
There is ABSOLUTELY NO WARRANTY; not even for MERCHANTABILITY or FITNESS FOR A PARTICULAR PURPOSE.
For details see the documentation.
Scientific users of this library should cite U. Ekstrom, L. Visscher, R. Bast, A. J. Thorvaldsen and K. Ruud;
J.Chem.Theor.Comp. 2010, DOI: 10.1021/ct100117s
XCFun Version 0.99 

================================================================================

----- Orbital basis set information -----
Your calculation utilizes the basis: def2-mTZVP
----- AuxJ basis set information -----
Your calculation utilizes the basis: def2-mTZVP/J
================================================================================
                                        WARNINGS
                       Please study these warnings very carefully!
================================================================================

WARNING: Gradients needed for Numerical Frequencies
  ===> : Setting RunTyp to EnGrad

WARNING: The environment variable RSH_COMMAND is not set!
  ===> : All Displacements for the Numerical Hessian calculation
         will be started on localhost

INFO   : the flag for use of the SHARK integral package has been found!

================================================================================
                                       INPUT FILE
================================================================================
NAME = /scratch/negishi/li1724/Test-CentralizedCode-4-5/DFT/JHVUUIQHEXNRLG-UHFFFAOYSA-N/JHVUUIQHEXNRLG-UHFFFAOYSA-N-FullTZ.in
|  1> ! B97-3c def2-mTZVP CPCM(DMSO) defgrid2 NumFreq
|  2> 
|  3> %scf
|  4>   MaxIter 500
|  5> end
|  6> 
|  7> %pal
|  8>   nproc 48
|  9> end
| 10> 
| 11> %maxcore 4800
| 12> 
| 13> %base "JHVUUIQHEXNRLG-UHFFFAOYSA-N-FullTZ"
| 14> 
| 15> *xyzfile -1 1 /scratch/negishi/li1724/Test-CentralizedCode-4-5/DFT/JHVUUIQHEXNRLG-UHFFFAOYSA-N/JHVUUIQHEXNRLG-UHFFFAOYSA-N-FullTZ.xyz
| 16> 
| 17>                          ****END OF INPUT****
================================================================================

                     *******************************
                     * Energy+Gradient Calculation *
                     *******************************

---------------------------------
CARTESIAN COORDINATES (ANGSTROEM)
---------------------------------
  C     -3.068630    0.812307   -0.313357
  C     -4.598266   -0.295422    1.268614
  C      1.804452   -2.162406   -2.268069
  C     -0.247875   -1.213372   -1.334525
  C     -3.642178   -1.269007    1.477364
  C     -0.951319   -2.302509   -1.877295
  C     -2.072038   -0.216685   -0.084770
  C      1.075124   -3.226420   -2.818590
  C     -2.844269    1.859763   -1.239973
  C     -4.323331    0.777847    0.381623
  C      1.192737   -1.167635   -1.477892
  C     -2.373981   -1.242283    0.845790
  C     -0.303353   -3.309548   -2.602414
  C     -3.780260    2.857397   -1.448204
  C     -5.266206    1.816358    0.152102
  C     -1.715903   -3.610878    1.353601
  C     -1.372608   -2.251044    1.256666
  C     -5.002684    2.840921   -0.737332
  C      3.063321   -0.012181   -0.355585
  C      4.001399   -1.086201   -0.312479
  C      1.042365    3.417395    2.188825
  C      2.152241    2.607606    1.898143
  C      0.193750    3.832581    1.171137
  C      2.480617    2.254955    0.597630
  C      3.480835    1.201913    0.328998
  C     -0.781480   -4.563672    1.769238
  C      5.270042   -0.952898    0.247816
  C     -0.062052   -1.874034    1.603362
  C      0.502366    3.516975   -0.173260
  C      1.686931    2.789771   -0.468663
  C      4.759777    1.300768    0.884100
  C      5.683179    0.250812    0.829928
  C      0.520083   -4.175034    2.100219
  C      0.871877   -2.821702    2.020058
  Cu     0.399516    1.297536   -0.523189
  H     -1.903209    1.869003   -1.789792
  H     -5.553660   -0.328152    1.792799
  H      2.868537   -2.093988   -2.482905
  H     -2.032065   -2.342299   -1.737529
  H     -3.840536   -2.067192    2.194496
  H      1.590006   -3.979140   -3.417759
  H     -2.722845   -3.927453    1.078891
  H     -0.882131   -4.136382   -3.017534
  H     -3.578125    3.653028   -2.166409
  H      3.714244   -2.055408   -0.708741
  H     -6.212130    1.788279    0.695733
  H      0.823880    3.669402    3.226418
  H      2.740229    2.192771    2.715976
  H     -5.739014    3.629490   -0.898955
  H     -0.699808    4.415241    1.396314
  H     -1.069519   -5.614532    1.824457
  H      0.227534   -0.826581    1.529607
  H      5.945251   -1.811339    0.230191
  H     -0.073378    3.966952   -0.981978
  H      2.069487    2.747683   -1.490182
  H      5.029865    2.233604    1.383013
  H      6.681804    0.362240    1.252009
  H      1.253439   -4.917470    2.417793
  H      1.881486   -2.502322    2.282710
  N     -0.873089   -0.128158   -0.745279
  N      1.810894   -0.086905   -0.877927

----------------------------
CARTESIAN COORDINATES (A.U.)
----------------------------
  NO LB      ZA    FRAG     MASS         X           Y           Z
   0 C     6.0000    0    12.011   -5.798870    1.535037   -0.592159
   1 C     6.0000    0    12.011   -8.689464   -0.558266    2.397334
   2 C     6.0000    0    12.011    3.409920   -4.086355   -4.286028
   3 C     6.0000    0    12.011   -0.468415   -2.292941   -2.521888
   4 C     6.0000    0    12.011   -6.882718   -2.398076    2.791813
   5 C     6.0000    0    12.011   -1.797733   -4.351112   -3.547574
   6 C     6.0000    0    12.011   -3.915584   -0.409475   -0.160191
   7 C     6.0000    0    12.011    2.031689   -6.097050   -5.326364
   8 C     6.0000    0    12.011   -5.374889    3.514443   -2.343210
   9 C     6.0000    0    12.011   -8.169912    1.469917    0.721163
  10 C     6.0000    0    12.011    2.253947   -2.206510   -2.792811
  11 C     6.0000    0    12.011   -4.486174   -2.347574    1.598311
  12 C     6.0000    0    12.011   -0.573255   -6.254140   -4.917849
  13 C     6.0000    0    12.011   -7.143656    5.399698   -2.736708
  14 C     6.0000    0    12.011   -9.951686    3.432420    0.287431
  15 C     6.0000    0    12.011   -3.242586   -6.823571    2.557935
  16 C     6.0000    0    12.011   -2.593854   -4.253857    2.374754
  17 C     6.0000    0    12.011   -9.453703    5.368563   -1.393355
  18 C     6.0000    0    12.011    5.788838   -0.023018   -0.671958
  19 C     6.0000    0    12.011    7.561548   -2.052622   -0.590500
  20 C     6.0000    0    12.011    1.969784    6.457941    4.136280
  21 C     6.0000    0    12.011    4.067146    4.927661    3.586970
  22 C     6.0000    0    12.011    0.366135    7.242528    2.213129
  23 C     6.0000    0    12.011    4.687686    4.261247    1.129358
  24 C     6.0000    0    12.011    6.577826    2.271286    0.621716
  25 C     6.0000    0    12.011   -1.476783   -8.624090    3.343375
  26 C     6.0000    0    12.011    9.958935   -1.800716    0.468305
  27 C     6.0000    0    12.011   -0.117261   -3.541411    3.029916
  28 C     6.0000    0    12.011    0.949334    6.646119   -0.327413
  29 C     6.0000    0    12.011    3.187838    5.271903   -0.885644
  30 C     6.0000    0    12.011    8.994675    2.458095    1.670706
  31 C     6.0000    0    12.011   10.739652    0.473965    1.568336
  32 C     6.0000    0    12.011    0.982814   -7.889671    3.968838
  33 C     6.0000    0    12.011    1.647610   -5.332243    3.817357
  34 Cu   29.0000    0    63.550    0.754977    2.451987   -0.988683
  35 H     1.0000    0     1.008   -3.596544    3.531904   -3.382217
  36 H     1.0000    0     1.008  -10.494897   -0.620117    3.387900
  37 H     1.0000    0     1.008    5.420750   -3.957063   -4.692011
  38 H     1.0000    0     1.008   -3.840047   -4.426304   -3.283455
  39 H     1.0000    0     1.008   -7.257562   -3.906428    4.146996
  40 H     1.0000    0     1.008    3.004677   -7.519485   -6.458628
  41 H     1.0000    0     1.008   -5.145431   -7.421811    2.038809
  42 H     1.0000    0     1.008   -1.666986   -7.816630   -5.702313
  43 H     1.0000    0     1.008   -6.761677    6.903222   -4.093921
  44 H     1.0000    0     1.008    7.018904   -3.884158   -1.339326
  45 H     1.0000    0     1.008  -11.739224    3.379357    1.314745
  46 H     1.0000    0     1.008    1.556907    6.934164    6.097047
  47 H     1.0000    0     1.008    5.178283    4.143737    5.132450
  48 H     1.0000    0     1.008  -10.845165    6.858742   -1.698779
  49 H     1.0000    0     1.008   -1.322445    8.343596    2.638651
  50 H     1.0000    0     1.008   -2.021099  -10.609929    3.447724
  51 H     1.0000    0     1.008    0.429978   -1.562012    2.890537
  52 H     1.0000    0     1.008   11.234897   -3.422935    0.434999
  53 H     1.0000    0     1.008   -0.138665    7.496453   -1.855669
  54 H     1.0000    0     1.008    3.910763    5.192368   -2.816036
  55 H     1.0000    0     1.008    9.505067    4.220900    2.613517
  56 H     1.0000    0     1.008   12.626779    0.684534    2.365955
  57 H     1.0000    0     1.008    2.368657   -9.292672    4.568966
  58 H     1.0000    0     1.008    3.555494   -4.728703    4.313697
  59 N     7.0000    0    14.007   -1.649899   -0.242183   -1.408373
  60 N     7.0000    0    14.007    3.422094   -0.164227   -1.659042

--------------------------------
INTERNAL COORDINATES (ANGSTROEM)
--------------------------------
 C      0   0   0     0.000000000000     0.00000000     0.00000000
 C      1   0   0     2.463631941333     0.00000000     0.00000000
 C      1   2   0     6.034628304026   119.19164820     0.00000000
 C      3   1   2     2.446265118927     7.10112719     4.91434150
 C      2   1   3     1.380417028971    89.09417842    13.07211666
 C      4   3   1     1.405579354944    88.38961577   127.38053587
 C      1   2   3     1.450610973092    90.36813571   346.90376312
 C      3   1   2     1.402540702771    94.65692663    58.73988498
 C      1   2   3     1.416375999057   148.31637147   163.55360000
 C      2   1   3     1.419241836162    30.50138364   191.53824740
 C      3   1   2     1.410015600405    28.40278657   253.63141502
 C      5   2   1     1.417012007811   122.62701958     1.40505130
 C      8   3   1     1.397798717638   119.81682658   352.57636078
 C      9   1   2     1.383731538158   121.63349250     4.99008931
 C     10   2   1     1.421336707904   121.66541160   179.35845051
 C     12   5   2     2.510215614336    97.27699371   194.34568310
 C     16  12   5     1.405843444028    30.38647429   221.32834159
 C     15  10   2     1.382123201218   121.26999968   181.54474945
 C     11   3   1     2.468548504653   104.84837701   182.54526070
 C     19  11   3     1.426662528478    99.18488795   331.72370375
 C     19  11   3     4.724433846061   105.09910896   178.20923430
 C     21  19  11     1.404307809133    29.75445601   164.18737350
 C     21  19  11     1.388601601754    94.80485998   314.82064721
 C     22  21  19     1.386912165417   121.86020075    37.89802693
 C     19  11   3     1.454989550838   145.27847141   159.96503846
 C     16  12   5     1.397753646916   151.47596030   223.84511530
 C     20  19  11     1.393253375914   122.60517869   180.15427051
 C     17  16  12     1.407087055115   118.00946515   177.98823180
 C     23  21  19     1.415010437753   119.75793847   339.15744749
 C     29  23  21     1.421014812805   119.56823112   359.32369489
 C     25  19  11     1.397713315204   120.56048486   175.77060387
 C     31  25  19     1.399290422033   122.37012435   359.05237571
 C     26  16  12     1.398089218856   120.21671932   358.62762150
 C     28  17  16     1.394249955036   121.02508254     0.51989906
 Cu    30  29  23     1.971592064173    81.30043526    98.51542923
 H      9   1   2     1.089944508487   118.23271014   184.59627935
 H      2   1   3     1.090238226030   150.03458087   192.29005612
 H      3   1   2     1.087710234157   145.38137432   223.26832696
 H      6   4   3     1.090472330886   118.34519134   181.14614515
 H      5   2   1     1.091202917158   119.29956402   178.12788588
 H      8   3   1     1.091189391640   119.56960844   172.20052260
 H     16  12   5     1.090695737057    88.90526385    43.69693358
 H     13   8   3     1.091312626759   120.61378179   180.52073905
 H     14   9   1     1.090736616692   119.97636442   179.81455286
 H     20  19  11     1.085745784194   119.14924899   358.66063377
 H     15  10   2     1.091373297788   118.40669001     1.45230317
 H     21  19  11     1.089881993781   140.02539363   107.79206084
 H     22  21  19     1.089343255857   119.39233515   221.65373687
 H     18  15  10     1.090937559789   120.16457780   180.06002279
 H     23  21  19     1.090248906026   120.61716586   160.25020816
 H     26  16  12     1.091019775339   119.67798423   179.25738980
 H     28  17  16     1.089246378934   119.24811237   179.61089103
 H     27  20  19     1.092309781738   118.76256586   181.14950735
 H     29  23  21     1.089947606825   119.84548605   189.32790820
 H     30  29  23     1.091614380781   120.42437029   195.06204154
 H     31  25  19     1.091808446244   117.92178592   179.65449140
 H     32  31  25     1.089871928279   120.86049524   178.65759799
 H     33  26  16     1.090814332884   120.37180695   180.45411848
 H     34  28  17     1.091008418365   119.52765803   179.97740139
 N      7   1   2     1.371709350605   118.60903970   180.66336927
 N     19  11   3     1.359043342779    25.99971303   152.52863443

---------------------------
INTERNAL COORDINATES (A.U.)
---------------------------
 C      0   0   0     0.000000000000     0.00000000     0.00000000
 C      1   0   0     4.655589663900     0.00000000     0.00000000
 C      1   2   0    11.403794814619   119.19164820     0.00000000
 C      3   1   2     4.622771125736     7.10112719     4.91434150
 C      2   1   3     2.608610135357    89.09417842    13.07211666
 C      4   3   1     2.656160040337    88.38961577   127.38053587
 C      1   2   3     2.741257466005    90.36813571   346.90376312
 C      3   1   2     2.650417819915    94.65692663    58.73988498
 C      1   2   3     2.676562740876   148.31637147   163.55360000
 C      2   1   3     2.681978388150    30.50138364   191.53824740
 C      3   1   2     2.664543329322    28.40278657   253.63141502
 C      5   2   1     2.677764623240   122.62701958     1.40505130
 C      8   3   1     2.641456766682   119.81682658   352.57636078
 C      9   1   2     2.614873649989   121.63349250     4.99008931
 C     10   2   1     2.685937122028   121.66541160   179.35845051
 C     12   5   2     4.743620048187    97.27699371   194.34568310
 C     16  12   5     2.656659096381    30.38647429   221.32834159
 C     15  10   2     2.611834333640   121.26999968   181.54474945
 C     11   3   1     4.664880622094   104.84837701   182.54526070
 C     19  11   3     2.696001464350    99.18488795   331.72370375
 C     19  11   3     8.927886106884   105.09910896   178.20923430
 C     21  19  11     2.653757166987    29.75445601   164.18737350
 C     21  19  11     2.624076736439    94.80485998   314.82064721
 C     22  21  19     2.620884164442   121.86020075    37.89802693
 C     19  11   3     2.749531778800   145.27847141   159.96503846
 C     16  12   5     2.641371595360   151.47596030   223.84511530
 C     20  19  11     2.632867315639   122.60517869   180.15427051
 C     17  16  12     2.659009180753   118.00946515   177.98823180
 C     23  21  19     2.673982203993   119.75793847   339.15744749
 C     29  23  21     2.685328828447   119.56823112   359.32369489
 C     25  19  11     2.641295379472   120.56048486   175.77060387
 C     31  25  19     2.644275679461   122.37012435   359.05237571
 C     26  16  12     2.642005734426   120.21671932   358.62762150
 C     28  17  16     2.634750577249   121.02508254     0.51989906
 Cu    30  29  23     3.725769049100    81.30043526    98.51542923
 H      9   1   2     2.059696622213   118.23271014   184.59627935
 H      2   1   3     2.060251667929   150.03458087   192.29005612
 H      3   1   2     2.055474455620   145.38137432   223.26832696
 H      6   4   3     2.060694061993   118.34519134   181.14614515
 H      5   2   1     2.062074669965   119.29956402   178.12788588
 H      8   3   1     2.062049110440   119.56960844   172.20052260
 H     16  12   5     2.061116238473    88.90526385    43.69693358
 H     13   8   3     2.062281991065   120.61378179   180.52073905
 H     14   9   1     2.061193489788   119.97636442   179.81455286
 H     20  19  11     2.051762183185   119.14924899   358.66063377
 H     15  10   2     2.062396642693   118.40669001     1.45230317
 H     21  19  11     2.059578486538   140.02539363   107.79206084
 H     22  21  19     2.058560419405   119.39233515   221.65373687
 H     18  15  10     2.061573217209   120.16457780   180.06002279
 H     23  21  19     2.060271850197   120.61716586   160.25020816
 H     26  16  12     2.061728582084   119.67798423   179.25738980
 H     28  17  16     2.058377348550   119.24811237   179.61089103
 H     27  20  19     2.064166340889   118.76256586   181.14950735
 H     29  23  21     2.059702477222   119.84548605   189.32790820
 H     30  29  23     2.062852223526   120.42437029   195.06204154
 H     31  25  19     2.063218954103   117.92178592   179.65449140
 H     32  31  25     2.059559465497   120.86049524   178.65759799
 H     33  26  16     2.061340352107   120.37180695   180.45411848
 H     34  28  17     2.061707120513   119.52765803   179.97740139
 N      7   1   2     2.592155007983   118.60903970   180.66336927
 N     19  11   3     2.568219721981    25.99971303   152.52863443

---------------------
BASIS SET INFORMATION
---------------------
There are 4 groups of distinct atoms

 Group   1 Type C   : 11s6p1d contracted to 5s3p1d pattern {62111/411/1}
 Group   2 Type Cu  : 17s11p6d contracted to 6s4p3d pattern {842111/6311/411}
 Group   3 Type H   : 5s contracted to 3s pattern {311}
 Group   4 Type N   : 11s6p1d contracted to 5s3p1d pattern {62111/411/1}

Atom   0C    basis set group =>   1
Atom   1C    basis set group =>   1
Atom   2C    basis set group =>   1
Atom   3C    basis set group =>   1
Atom   4C    basis set group =>   1
Atom   5C    basis set group =>   1
Atom   6C    basis set group =>   1
Atom   7C    basis set group =>   1
Atom   8C    basis set group =>   1
Atom   9C    basis set group =>   1
Atom  10C    basis set group =>   1
Atom  11C    basis set group =>   1
Atom  12C    basis set group =>   1
Atom  13C    basis set group =>   1
Atom  14C    basis set group =>   1
Atom  15C    basis set group =>   1
Atom  16C    basis set group =>   1
Atom  17C    basis set group =>   1
Atom  18C    basis set group =>   1
Atom  19C    basis set group =>   1
Atom  20C    basis set group =>   1
Atom  21C    basis set group =>   1
Atom  22C    basis set group =>   1
Atom  23C    basis set group =>   1
Atom  24C    basis set group =>   1
Atom  25C    basis set group =>   1
Atom  26C    basis set group =>   1
Atom  27C    basis set group =>   1
Atom  28C    basis set group =>   1
Atom  29C    basis set group =>   1
Atom  30C    basis set group =>   1
Atom  31C    basis set group =>   1
Atom  32C    basis set group =>   1
Atom  33C    basis set group =>   1
Atom  34Cu   basis set group =>   2
Atom  35H    basis set group =>   3
Atom  36H    basis set group =>   3
Atom  37H    basis set group =>   3
Atom  38H    basis set group =>   3
Atom  39H    basis set group =>   3
Atom  40H    basis set group =>   3
Atom  41H    basis set group =>   3
Atom  42H    basis set group =>   3
Atom  43H    basis set group =>   3
Atom  44H    basis set group =>   3
Atom  45H    basis set group =>   3
Atom  46H    basis set group =>   3
Atom  47H    basis set group =>   3
Atom  48H    basis set group =>   3
Atom  49H    basis set group =>   3
Atom  50H    basis set group =>   3
Atom  51H    basis set group =>   3
Atom  52H    basis set group =>   3
Atom  53H    basis set group =>   3
Atom  54H    basis set group =>   3
Atom  55H    basis set group =>   3
Atom  56H    basis set group =>   3
Atom  57H    basis set group =>   3
Atom  58H    basis set group =>   3
Atom  59N    basis set group =>   4
Atom  60N    basis set group =>   4
---------------------------------
AUXILIARY/J BASIS SET INFORMATION
---------------------------------
There are 4 groups of distinct atoms

 Group   1 Type C   : 8s3p3d contracted to 6s3p3d pattern {311111/111/111}
 Group   2 Type Cu  : 19s5p5d3f3g contracted to 8s5p4d3f3g pattern {121111111/11111/2111/111/111}
 Group   3 Type H   : 5s2p contracted to 3s1p pattern {311/2}
 Group   4 Type N   : 8s3p3d contracted to 6s3p3d pattern {311111/111/111}

Atom   0C    basis set group =>   1
Atom   1C    basis set group =>   1
Atom   2C    basis set group =>   1
Atom   3C    basis set group =>   1
Atom   4C    basis set group =>   1
Atom   5C    basis set group =>   1
Atom   6C    basis set group =>   1
Atom   7C    basis set group =>   1
Atom   8C    basis set group =>   1
Atom   9C    basis set group =>   1
Atom  10C    basis set group =>   1
Atom  11C    basis set group =>   1
Atom  12C    basis set group =>   1
Atom  13C    basis set group =>   1
Atom  14C    basis set group =>   1
Atom  15C    basis set group =>   1
Atom  16C    basis set group =>   1
Atom  17C    basis set group =>   1
Atom  18C    basis set group =>   1
Atom  19C    basis set group =>   1
Atom  20C    basis set group =>   1
Atom  21C    basis set group =>   1
Atom  22C    basis set group =>   1
Atom  23C    basis set group =>   1
Atom  24C    basis set group =>   1
Atom  25C    basis set group =>   1
Atom  26C    basis set group =>   1
Atom  27C    basis set group =>   1
Atom  28C    basis set group =>   1
Atom  29C    basis set group =>   1
Atom  30C    basis set group =>   1
Atom  31C    basis set group =>   1
Atom  32C    basis set group =>   1
Atom  33C    basis set group =>   1
Atom  34Cu   basis set group =>   2
Atom  35H    basis set group =>   3
Atom  36H    basis set group =>   3
Atom  37H    basis set group =>   3
Atom  38H    basis set group =>   3
Atom  39H    basis set group =>   3
Atom  40H    basis set group =>   3
Atom  41H    basis set group =>   3
Atom  42H    basis set group =>   3
Atom  43H    basis set group =>   3
Atom  44H    basis set group =>   3
Atom  45H    basis set group =>   3
Atom  46H    basis set group =>   3
Atom  47H    basis set group =>   3
Atom  48H    basis set group =>   3
Atom  49H    basis set group =>   3
Atom  50H    basis set group =>   3
Atom  51H    basis set group =>   3
Atom  52H    basis set group =>   3
Atom  53H    basis set group =>   3
Atom  54H    basis set group =>   3
Atom  55H    basis set group =>   3
Atom  56H    basis set group =>   3
Atom  57H    basis set group =>   3
Atom  58H    basis set group =>   3
Atom  59N    basis set group =>   4
Atom  60N    basis set group =>   4


           ************************************************************
           *        Program running with 48 parallel MPI-processes    *
           *              working on a common directory               *
           ************************************************************
------------------------------------------------------------------------------
                           ORCA GTO INTEGRAL CALCULATION
                           -- RI-GTO INTEGRALS CHOSEN --
------------------------------------------------------------------------------
------------------------------------------------------------------------------
                   ___                                                        
                  /   \      - P O W E R E D   B Y -                         
                 /     \                                                     
                 |  |  |   _    _      __       _____    __    __             
                 |  |  |  | |  | |    /  \     |  _  \  |  |  /  |          
                  \  \/   | |  | |   /    \    | | | |  |  | /  /          
                 / \  \   | |__| |  /  /\  \   | |_| |  |  |/  /          
                |  |  |   |  __  | /  /__\  \  |    /   |      \           
                |  |  |   | |  | | |   __   |  |    \   |  |\   \          
                \     /   | |  | | |  |  |  |  | |\  \  |  | \   \       
                 \___/    |_|  |_| |__|  |__|  |_| \__\ |__|  \__/        
                                                                              
                      - O R C A' S   B I G   F R I E N D -                    
                                      &                                       
                       - I N T E G R A L  F E E D E R -                       
                                                                              
 v1 FN, 2020, v2 2021                                                         
------------------------------------------------------------------------------


Reading SHARK input file JHVUUIQHEXNRLG-UHFFFAOYSA-N-FullTZ.SHARKINP.tmp ... ok
----------------------
SHARK INTEGRAL PACKAGE
----------------------

Number of atoms                             ...     61
Number of basis functions                   ...    789
Number of shells                            ...    409
Maximum angular momentum                    ...      2
Integral batch strategy                     ... SHARK/LIBINT Hybrid
RI-J (if used) integral strategy            ... SPLIT-RIJ (Revised 2003 algorithm where possible)
Printlevel                                  ...      1
Contraction scheme used                     ... SEGMENTED contraction
Coulomb Range Separation                    ... NOT USED
Exchange Range Separation                   ... NOT USED
Finite Nucleus Model                        ... NOT USED
Auxiliary Coulomb fitting basis             ... AVAILABLE
   # of basis functions in Aux-J            ...   1315
   # of shells in Aux-J                     ...    551
   Maximum angular momentum in Aux-J        ...      4
Auxiliary J/K fitting basis                 ... NOT available
Auxiliary Correlation fitting basis         ... NOT available
Auxiliary 'external' fitting basis          ... NOT available
Integral threshold                          ...     2.500000e-11
Primitive cut-off                           ...     2.500000e-12
Primitive pair pre-selection threshold      ...     2.500000e-12

Calculating pre-screening integrals         ... done (  0.3 sec) Dimension = 409
Organizing shell pair data                  ... done (  0.3 sec)
Shell pair information
Total number of shell pairs                 ...     83845
Shell pairs after pre-screening             ...     56155
Total number of primitive shell pairs       ...    322926
Primitive shell pairs kept                  ...    127309
          la=0 lb=0:  20552 shell pairs
          la=1 lb=0:  21270 shell pairs
          la=1 lb=1:   5312 shell pairs
          la=2 lb=0:   5558 shell pairs
          la=2 lb=1:   3084 shell pairs
          la=2 lb=2:    379 shell pairs

Calculating one electron integrals          ... done (  0.0 sec)
Calculating RI/J V-Matrix + Cholesky decomp.... done (  0.4 sec)
Calculating Nuclear repulsion               ... done (  0.0 sec) ENN=   4585.407170817306 Eh

SHARK setup successfully completed in   1.2 seconds

Maximum memory used throughout the entire GTOINT-calculation: 79.4 MB


           ************************************************************
           *        Program running with 48 parallel MPI-processes    *
           *              working on a common directory               *
           ************************************************************
-------------------------------------------------------------------------------
                                 ORCA SCF
-------------------------------------------------------------------------------

------------
SCF SETTINGS
------------
Hamiltonian:
 Density Functional     Method          .... DFT(GTOs)
 Exchange Functional    Exchange        .... B973C
 Correlation Functional Correlation     .... B973C
 Gradients option       PostSCFGGA      .... off
   Density functional embedding theory  .... OFF
 RI-approximation to the Coulomb term is turned on
   Number of AuxJ basis functions       .... 1315


General Settings:
 Integral files         IntName         .... JHVUUIQHEXNRLG-UHFFFAOYSA-N-FullTZ
 Hartree-Fock type      HFTyp           .... RHF
 Total Charge           Charge          ....   -1
 Multiplicity           Mult            ....    1
 Number of Electrons    NEL             ....  272
 Basis Dimension        Dim             ....  789
 Nuclear Repulsion      ENuc            ....   4585.4071708173 Eh

Convergence Acceleration:
 DIIS                   CNVDIIS         .... on
   Start iteration      DIISMaxIt       ....    12
   Startup error        DIISStart       ....  0.200000
   # of expansion vecs  DIISMaxEq       ....     5
   Bias factor          DIISBfac        ....   1.050
   Max. coefficient     DIISMaxC        ....  10.000
 Trust-Rad. Augm. Hess. CNVTRAH         .... auto
   Auto Start mean grad. ratio tolernc. ....  1.125000
   Auto Start start iteration           ....    20
   Auto Start num. interpolation iter.  ....    10
   Max. Number of Micro iterations      ....    16
   Max. Number of Macro iterations      .... Maxiter - #DIIS iter
   Number of Davidson start vectors     ....     2
   Converg. threshold I  (grad. norm)   ....   1.000e-05
   Converg. threshold II (energy diff.) ....   1.000e-08
   Grad. Scal. Fac. for Micro threshold ....   0.100
   Minimum threshold for Micro iter.    ....   0.010
   NR start threshold (gradient norm)   ....   0.001
   Initial trust radius                 ....   0.400
   Minimum AH scaling param. (alpha)    ....   1.000
   Maximum AH scaling param. (alpha)    .... 1000.000
   Orbital update algorithm             .... Taylor
   White noise on init. David. guess    .... on
   Maximum white noise                  ....   0.010
   Quad. conv. algorithm                .... NR
   COSX micro iterations for RIJONX calc.... off
 SOSCF                  CNVSOSCF        .... off
 Level Shifting         CNVShift        .... on
   Level shift para.    LevelShift      ....    0.2500
   Turn off err/grad.   ShiftErr        ....    0.0010
 Zerner damping         CNVZerner       .... off
 Static damping         CNVDamp         .... on
   Fraction old density DampFac         ....    0.7000
   Max. Damping (<1)    DampMax         ....    0.9800
   Min. Damping (>=0)   DampMin         ....    0.0000
   Turn off err/grad.   DampErr         ....    0.1000
 Fernandez-Rico         CNVRico         .... off

SCF Procedure:
 Maximum # iterations   MaxIter         ....   500
 SCF integral mode      SCFMode         .... Direct
   Integral package                     .... SHARK and LIBINT hybrid scheme
 Reset frequency        DirectResetFreq ....    20
 Integral Threshold     Thresh          ....  2.500e-11 Eh
 Primitive CutOff       TCut            ....  2.500e-12 Eh

Convergence Tolerance:
 Convergence Check Mode ConvCheckMode   .... Total+1el-Energy
 Convergence forced     ConvForced      .... 0
 Energy Change          TolE            ....  1.000e-08 Eh
 1-El. energy change                    ....  1.000e-05 Eh
 DIIS Error             TolErr          ....  5.000e-07


Diagonalization of the overlap matrix:
Smallest eigenvalue                        ... 4.454e-06
Time for diagonalization                   ...    0.125 sec
Threshold for overlap eigenvalues          ... 1.000e-08
Number of eigenvalues below threshold      ... 0
Time for construction of square roots      ...    0.092 sec
Total time needed                          ...    0.219 sec

--------------------------------
INITIAL GUESS: MINIMAL BASIS EHT
--------------------------------
The minimal basis has 222 functions
EHT matrix was diagonalized
Basis set overlap was calculated now projecting the orbitals
Using GuessMode=FMatrix for the initial guess
C*T matrix was formed
Effective Fockian was calculated
Effective Fockian was diagonalized
Initial density was built
                      ------------------
                      INITIAL GUESS DONE
                      ------------------
-------------------
DFT GRID GENERATION
-------------------

General Integration Accuracy     IntAcc      ... 4.388
Radial Grid Type                 RadialGrid  ... OptM3 with GC (2021)
Angular Grid (max. ang.)         AngularGrid ... 4 (Lebedev-302)
Angular grid pruning method      GridPruning ... 4 (adaptive)
Weight generation scheme         WeightScheme... Becke
Basis function cutoff            BFCut       ... 1.0000e-11
Integration weight cutoff        WCut        ... 1.0000e-14
Angular grids for H and He will be reduced by one unit
Partially contracted basis set               ... off
Rotationally invariant grid construction     ... off

Total number of grid points                  ...   299843
Total number of batches                      ...     4718
Average number of points per batch           ...       63
Average number of grid points per atom       ...     4915
Time for grid setup =    1.499 sec


--------------------
CPCM SOLVATION MODEL
--------------------
CPCM parameters:
  Epsilon                                         ...      47.2000
  Refrac                                          ...       1.4790
  Rsolv                                           ...       1.3000
  Surface type                                    ... GAUSSIAN VDW
  Epsilon function type                           ...         CPCM
Radii:
 Radius for C  used is    3.8550 Bohr (=   2.0400 Ang.)
 Radius for Cu used is    3.1747 Bohr (=   1.6800 Ang.)
 Radius for H  used is    2.4944 Bohr (=   1.3200 Ang.)
 Radius for N  used is    3.5149 Bohr (=   1.8600 Ang.)
Calculating surface                               ...        done! (  0.0s)
GEPOL surface points                              ...         3100
GEPOL Volume                                      ...    3818.3465
GEPOL Surface-area                                ...    1789.4303
Calculating surface distance matrix               ...        done! (  0.1s)
Performing Cholesky decomposition & store         ...        done! (  0.6s)
Overall time for CPCM initialization              ...                 0.7s
--------------
SCF ITERATIONS
--------------
ITER       Energy         Delta-E        Max-DP      RMS-DP      [F,P]     Damp
               ***  Starting incremental Fock matrix formation  ***
  0  -3052.6131873435   0.00000000000031.68864322  0.34376422  1.6861342 0.7000
  1  -3053.7065608687  -1.093373525196 9.05982418  0.10087041  0.7500219 0.7000
  2  -3055.8879629863  -2.181402117569 6.54838865  0.07264129  0.4315374 0.7000
  3  -3057.0476532578  -1.159690271505 5.53594361  0.05363862  0.4084259 0.7000
  4  -3057.8371689792  -0.789515721481 4.18321986  0.03854214  0.2456840 0.7000
                               ***Turning on DIIS***
  5  -3058.3894231506  -0.552254171368 2.98809275  0.02723279  0.1580304 0.7000
  6  -3058.7751652473  -0.385742096679 2.11062046  0.01922643  0.1198214 0.7000
  7  -3059.0442689150  -0.269103667722 4.95949019  0.04513780  0.0773393 0.0000
  8  -3059.6659196639  -0.621650748919 0.02893784  0.00036843  0.1102131 0.7000
  9  -3059.6728886582  -0.006968994258 0.07414272  0.00094378  0.0497749 0.0000
 10  -3059.6746229041  -0.001734245894 0.01864096  0.00026690  0.0457730 0.0000
 11  -3059.6766214297  -0.001998525585 0.00839738  0.00009384  0.0098936 0.0000
 12  -3059.6767710387  -0.000149609019 0.00672951  0.00010162  0.0006141 0.0000
 13  -3059.6767479274   0.000023111293 0.00220703  0.00002798  0.0049217 0.0000
 14  -3059.6767772377  -0.000029310304 0.00136659  0.00001792  0.0034378 0.0000
 15  -3059.6767908242  -0.000013586476 0.00117675  0.00001329  0.0021081 0.0000
 16  -3059.6767963472  -0.000005523022 0.00163212  0.00001182  0.0010232 0.0000
 17  -3059.6767981172  -0.000001770033 0.00122147  0.00000968  0.0002388 0.0000
 18  -3059.6767978502   0.000000267037 0.00040550  0.00000561  0.0004615 0.0000
 19  -3059.6767985428  -0.000000692632 0.00249534  0.00001976  0.0001948 0.0000
               *** Restarting incremental Fock matrix formation ***
                                   *** Resetting DIIS ***
 20  -3059.6767986176  -0.000000074753 0.00262771  0.00002291  0.0001430 0.0000
 21  -3059.6767975595   0.000001058039 0.00060336  0.00000713  0.0008796 0.0000
 22  -3059.6767986272  -0.000001067674 0.00019909  0.00000172  0.0000534 0.0000
 23  -3059.6767986886  -0.000000061337 0.00062617  0.00000577  0.0000562 0.0000
 24  -3059.6767987220  -0.000000033494 0.00049371  0.00000393  0.0000103 0.0000
 25  -3059.6767987277  -0.000000005684 0.00057935  0.00000478  0.0000038 0.0000
 26  -3059.6767987556  -0.000000027858 0.00020917  0.00000206  0.0000022 0.0000
 27  -3059.6767987193   0.000000036250 0.00017611  0.00000152  0.0000012 0.0000
                            ***DIIS convergence achieved***

               *****************************************************
               *                     SUCCESS                       *
               *           SCF CONVERGED AFTER  28 CYCLES          *
               *****************************************************


----------------
TOTAL SCF ENERGY
----------------

Total Energy       :        -3059.67679869 Eh          -83258.03845 eV

Components:
Nuclear Repulsion  :         4585.40717082 Eh          124775.27257 eV
Electronic Energy  :        -7645.08396951 Eh         -208033.31102 eV
One Electron Energy:       -13376.67242735 Eh         -363997.76204 eV
Two Electron Energy:         5731.58845784 Eh          155964.45102 eV
CPCM Dielectric    :           -0.08226923 Eh              -2.23866 eV

Virial components:
Potential Energy   :        -6111.49602429 Eh         -166302.26146 eV
Kinetic Energy     :         3051.81922560 Eh           83044.22302 eV
Virial Ratio       :            2.00257472


DFT components:
N(Alpha)           :      136.000225563161 electrons
N(Beta)            :      136.000225563161 electrons
N(Total)           :      272.000451126322 electrons
E(XC)              :     -274.128047069392 Eh       
DFET-embed. en.    :        0.000000000000 Eh       
CPCM Solvation Model Properties:
Surface-charge          :            0.95026656
Charge-correction       :           -0.00487559 Eh              -0.13267 eV
Free-energy (cav+disp)  :  This term is not implemented in the current solvation scheme

---------------
SCF CONVERGENCE
---------------

  Last Energy change         ...    2.6626e-08  Tolerance :   1.0000e-08
  Last MAX-Density change    ...    5.2211e-05  Tolerance :   1.0000e-07
  Last RMS-Density change    ...    5.2474e-07  Tolerance :   5.0000e-09
  Last DIIS Error            ...    2.6386e-07  Tolerance :   5.0000e-07

             **** THE GBW FILE WAS UPDATED (JHVUUIQHEXNRLG-UHFFFAOYSA-N-FullTZ.gbw) ****
             **** DENSITY JHVUUIQHEXNRLG-UHFFFAOYSA-N-FullTZ.scfp WAS UPDATED ****
             **** ENERGY FILE WAS UPDATED (JHVUUIQHEXNRLG-UHFFFAOYSA-N-FullTZ.en.tmp) ****
             **** THE GBW FILE WAS UPDATED (JHVUUIQHEXNRLG-UHFFFAOYSA-N-FullTZ.gbw) ****
             **** DENSITY JHVUUIQHEXNRLG-UHFFFAOYSA-N-FullTZ.scfp WAS UPDATED ****
----------------
ORBITAL ENERGIES
----------------

  NO   OCC          E(Eh)            E(eV) 
   0   2.0000    -321.343979     -8744.2142 
   1   2.0000     -38.313734     -1042.5697 
   2   2.0000     -33.636654      -915.2999 
   3   2.0000     -33.635606      -915.2714 
   4   2.0000     -33.635072      -915.2568 
   5   2.0000     -13.954047      -379.7089 
   6   2.0000     -13.950657      -379.6167 
   7   2.0000      -9.919354      -269.9193 
   8   2.0000      -9.918392      -269.8932 
   9   2.0000      -9.904322      -269.5103 
  10   2.0000      -9.903933      -269.4997 
  11   2.0000      -9.902684      -269.4657 
  12   2.0000      -9.902438      -269.4590 
  13   2.0000      -9.901146      -269.4239 
  14   2.0000      -9.896863      -269.3073 
  15   2.0000      -9.896115      -269.2870 
  16   2.0000      -9.895344      -269.2660 
  17   2.0000      -9.891767      -269.1687 
  18   2.0000      -9.890000      -269.1206 
  19   2.0000      -9.889725      -269.1131 
  20   2.0000      -9.889607      -269.1099 
  21   2.0000      -9.889427      -269.1050 
  22   2.0000      -9.889052      -269.0948 
  23   2.0000      -9.888397      -269.0770 
  24   2.0000      -9.888034      -269.0671 
  25   2.0000      -9.887662      -269.0570 
  26   2.0000      -9.887299      -269.0471 
  27   2.0000      -9.886628      -269.0288 
  28   2.0000      -9.885713      -269.0039 
  29   2.0000      -9.885655      -269.0023 
  30   2.0000      -9.885573      -269.0001 
  31   2.0000      -9.884718      -268.9769 
  32   2.0000      -9.881557      -268.8908 
  33   2.0000      -9.881121      -268.8790 
  34   2.0000      -9.876823      -268.7620 
  35   2.0000      -9.870669      -268.5945 
  36   2.0000      -9.870544      -268.5912 
  37   2.0000      -9.869497      -268.5627 
  38   2.0000      -9.868533      -268.5364 
  39   2.0000      -9.868159      -268.5263 
  40   2.0000      -9.866365      -268.4774 
  41   2.0000      -4.100361      -111.5765 
  42   2.0000      -2.645336       -71.9833 
  43   2.0000      -2.635751       -71.7224 
  44   2.0000      -2.633906       -71.6722 
  45   2.0000      -0.840024       -22.8582 
  46   2.0000      -0.817835       -22.2544 
  47   2.0000      -0.787716       -21.4348 
  48   2.0000      -0.780587       -21.2409 
  49   2.0000      -0.776091       -21.1185 
  50   2.0000      -0.755175       -20.5494 
  51   2.0000      -0.739235       -20.1156 
  52   2.0000      -0.732445       -19.9309 
  53   2.0000      -0.700614       -19.0647 
  54   2.0000      -0.693704       -18.8767 
  55   2.0000      -0.686486       -18.6802 
  56   2.0000      -0.682601       -18.5745 
  57   2.0000      -0.670550       -18.2466 
  58   2.0000      -0.662791       -18.0355 
  59   2.0000      -0.652987       -17.7687 
  60   2.0000      -0.649484       -17.6733 
  61   2.0000      -0.646590       -17.5946 
  62   2.0000      -0.625945       -17.0328 
  63   2.0000      -0.609295       -16.5798 
  64   2.0000      -0.565460       -15.3870 
  65   2.0000      -0.557666       -15.1749 
  66   2.0000      -0.554113       -15.0782 
  67   2.0000      -0.553030       -15.0487 
  68   2.0000      -0.542565       -14.7640 
  69   2.0000      -0.537283       -14.6202 
  70   2.0000      -0.535520       -14.5722 
  71   2.0000      -0.519468       -14.1354 
  72   2.0000      -0.514732       -14.0066 
  73   2.0000      -0.500181       -13.6106 
  74   2.0000      -0.492178       -13.3928 
  75   2.0000      -0.464701       -12.6451 
  76   2.0000      -0.464322       -12.6348 
  77   2.0000      -0.458927       -12.4880 
  78   2.0000      -0.449142       -12.2218 
  79   2.0000      -0.445914       -12.1339 
  80   2.0000      -0.428519       -11.6606 
  81   2.0000      -0.424702       -11.5567 
  82   2.0000      -0.414107       -11.2684 
  83   2.0000      -0.412822       -11.2334 
  84   2.0000      -0.405638       -11.0380 
  85   2.0000      -0.399282       -10.8650 
  86   2.0000      -0.397451       -10.8152 
  87   2.0000      -0.393289       -10.7019 
  88   2.0000      -0.389423       -10.5967 
  89   2.0000      -0.384814       -10.4713 
  90   2.0000      -0.380427       -10.3519 
  91   2.0000      -0.378889       -10.3101 
  92   2.0000      -0.372057       -10.1242 
  93   2.0000      -0.370677       -10.0866 
  94   2.0000      -0.366248        -9.9661 
  95   2.0000      -0.363690        -9.8965 
  96   2.0000      -0.362166        -9.8550 
  97   2.0000      -0.354851        -9.6560 
  98   2.0000      -0.349844        -9.5197 
  99   2.0000      -0.347838        -9.4652 
 100   2.0000      -0.341343        -9.2884 
 101   2.0000      -0.336574        -9.1586 
 102   2.0000      -0.332191        -9.0394 
 103   2.0000      -0.325581        -8.8595 
 104   2.0000      -0.323289        -8.7972 
 105   2.0000      -0.316151        -8.6029 
 106   2.0000      -0.312003        -8.4900 
 107   2.0000      -0.305958        -8.3255 
 108   2.0000      -0.305388        -8.3100 
 109   2.0000      -0.303579        -8.2608 
 110   2.0000      -0.299049        -8.1375 
 111   2.0000      -0.295311        -8.0358 
 112   2.0000      -0.292496        -7.9592 
 113   2.0000      -0.287529        -7.8241 
 114   2.0000      -0.286201        -7.7879 
 115   2.0000      -0.281137        -7.6501 
 116   2.0000      -0.274414        -7.4672 
 117   2.0000      -0.264746        -7.2041 
 118   2.0000      -0.257252        -7.0002 
 119   2.0000      -0.255920        -6.9639 
 120   2.0000      -0.248666        -6.7666 
 121   2.0000      -0.245474        -6.6797 
 122   2.0000      -0.235006        -6.3948 
 123   2.0000      -0.223950        -6.0940 
 124   2.0000      -0.219862        -5.9828 
 125   2.0000      -0.208787        -5.6814 
 126   2.0000      -0.206363        -5.6154 
 127   2.0000      -0.203781        -5.5452 
 128   2.0000      -0.200789        -5.4637 
 129   2.0000      -0.199854        -5.4383 
 130   2.0000      -0.194834        -5.3017 
 131   2.0000      -0.191533        -5.2119 
 132   2.0000      -0.177809        -4.8384 
 133   2.0000      -0.153624        -4.1803 
 134   2.0000      -0.140962        -3.8358 
 135   2.0000      -0.121189        -3.2977 
 136   0.0000      -0.061084        -1.6622 
 137   0.0000      -0.053808        -1.4642 
 138   0.0000      -0.044426        -1.2089 
 139   0.0000      -0.035021        -0.9530 
 140   0.0000      -0.031828        -0.8661 
 141   0.0000      -0.021508        -0.5853 
 142   0.0000      -0.014854        -0.4042 
 143   0.0000      -0.011541        -0.3140 
 144   0.0000      -0.003345        -0.0910 
 145   0.0000       0.014660         0.3989 
 146   0.0000       0.017529         0.4770 
 147   0.0000       0.023016         0.6263 
 148   0.0000       0.035318         0.9610 
 149   0.0000       0.049901         1.3579 
 150   0.0000       0.056556         1.5390 
 151   0.0000       0.058686         1.5969 
 152   0.0000       0.059978         1.6321 
 153   0.0000       0.061260         1.6670 
 154   0.0000       0.064226         1.7477 
 155   0.0000       0.070785         1.9262 
 156   0.0000       0.071289         1.9399 
 157   0.0000       0.077544         2.1101 
 158   0.0000       0.083501         2.2722 
 159   0.0000       0.086959         2.3663 
 160   0.0000       0.088851         2.4178 
 161   0.0000       0.091233         2.4826 
 162   0.0000       0.094068         2.5597 
 163   0.0000       0.096793         2.6339 
 164   0.0000       0.101571         2.7639 
 165   0.0000       0.104080         2.8322 
 166   0.0000       0.106692         2.9032 
 167   0.0000       0.110435         3.0051 
 168   0.0000       0.112632         3.0649 
 169   0.0000       0.114248         3.1088 
 170   0.0000       0.118215         3.2168 
 171   0.0000       0.120886         3.2895 
 172   0.0000       0.124727         3.3940 
 173   0.0000       0.128078         3.4852 
 174   0.0000       0.131964         3.5909 
 175   0.0000       0.132923         3.6170 
 176   0.0000       0.135510         3.6874 
 177   0.0000       0.138768         3.7761 
 178   0.0000       0.145863         3.9691 
 179   0.0000       0.151397         4.1197 
 180   0.0000       0.153476         4.1763 
 181   0.0000       0.157491         4.2855 
 182   0.0000       0.159124         4.3300 
 183   0.0000       0.159846         4.3496 
 184   0.0000       0.167121         4.5476 
 185   0.0000       0.173885         4.7316 
 186   0.0000       0.175552         4.7770 
 187   0.0000       0.178685         4.8623 
 188   0.0000       0.185445         5.0462 
 189   0.0000       0.186924         5.0865 
 190   0.0000       0.189303         5.1512 
 191   0.0000       0.192539         5.2392 
 192   0.0000       0.194453         5.2913 
 193   0.0000       0.195876         5.3301 
 194   0.0000       0.199859         5.4384 
 195   0.0000       0.202296         5.5047 
 196   0.0000       0.205421         5.5898 
 197   0.0000       0.208599         5.6763 
 198   0.0000       0.209247         5.6939 
 199   0.0000       0.213048         5.7973 
 200   0.0000       0.214835         5.8460 
 201   0.0000       0.216784         5.8990 
 202   0.0000       0.219731         5.9792 
 203   0.0000       0.220562         6.0018 
 204   0.0000       0.222236         6.0474 
 205   0.0000       0.224944         6.1210 
 206   0.0000       0.230434         6.2704 
 207   0.0000       0.231894         6.3102 
 208   0.0000       0.232932         6.3384 
 209   0.0000       0.233501         6.3539 
 210   0.0000       0.239402         6.5145 
 211   0.0000       0.243062         6.6140 
 212   0.0000       0.246072         6.6960 
 213   0.0000       0.247390         6.7318 
 214   0.0000       0.248507         6.7622 
 215   0.0000       0.251236         6.8365 
 216   0.0000       0.251930         6.8554 
 217   0.0000       0.256643         6.9836 
 218   0.0000       0.259695         7.0667 
 219   0.0000       0.263720         7.1762 
 220   0.0000       0.265815         7.2332 
 221   0.0000       0.267246         7.2721 
 222   0.0000       0.268947         7.3184 
 223   0.0000       0.271535         7.3889 
 224   0.0000       0.274423         7.4674 
 225   0.0000       0.276687         7.5290 
 226   0.0000       0.279945         7.6177 
 227   0.0000       0.282817         7.6958 
 228   0.0000       0.286590         7.7985 
 229   0.0000       0.289859         7.8875 
 230   0.0000       0.291805         7.9404 
 231   0.0000       0.293160         7.9773 
 232   0.0000       0.297084         8.0841 
 233   0.0000       0.303060         8.2467 
 234   0.0000       0.305666         8.3176 
 235   0.0000       0.307445         8.3660 
 236   0.0000       0.309186         8.4134 
 237   0.0000       0.312185         8.4950 
 238   0.0000       0.315204         8.5771 
 239   0.0000       0.318404         8.6642 
 240   0.0000       0.320608         8.7242 
 241   0.0000       0.322403         8.7730 
 242   0.0000       0.324492         8.8299 
 243   0.0000       0.328886         8.9494 
 244   0.0000       0.331419         9.0184 
 245   0.0000       0.333837         9.0842 
 246   0.0000       0.335005         9.1160 
 247   0.0000       0.339701         9.2437 
 248   0.0000       0.340271         9.2592 
 249   0.0000       0.344122         9.3640 
 250   0.0000       0.345373         9.3981 
 251   0.0000       0.349951         9.5227 
 252   0.0000       0.352994         9.6054 
 253   0.0000       0.354928         9.6581 
 254   0.0000       0.355537         9.6747 
 255   0.0000       0.359656         9.7867 
 256   0.0000       0.363994         9.9048 
 257   0.0000       0.365667         9.9503 
 258   0.0000       0.369883        10.0650 
 259   0.0000       0.372302        10.1309 
 260   0.0000       0.375776        10.2254 
 261   0.0000       0.379782        10.3344 
 262   0.0000       0.381789        10.3890 
 263   0.0000       0.383695        10.4409 
 264   0.0000       0.386703        10.5227 
 265   0.0000       0.390859        10.6358 
 266   0.0000       0.392468        10.6796 
 267   0.0000       0.396666        10.7938 
 268   0.0000       0.399540        10.8720 
 269   0.0000       0.404010        10.9937 
 270   0.0000       0.405841        11.0435 
 271   0.0000       0.407773        11.0961 
 272   0.0000       0.408391        11.1129 
 273   0.0000       0.411210        11.1896 
 274   0.0000       0.414687        11.2842 
 275   0.0000       0.419040        11.4027 
 276   0.0000       0.421216        11.4619 
 277   0.0000       0.423545        11.5253 
 278   0.0000       0.425332        11.5739 
 279   0.0000       0.428809        11.6685 
 280   0.0000       0.430840        11.7237 
 281   0.0000       0.433039        11.7836 
 282   0.0000       0.436158        11.8685 
 283   0.0000       0.439098        11.9485 
 284   0.0000       0.440234        11.9794 
 285   0.0000       0.444288        12.0897 
 286   0.0000       0.445750        12.1295 
 287   0.0000       0.448258        12.1977 
 288   0.0000       0.451793        12.2939 
 289   0.0000       0.454798        12.3757 
 290   0.0000       0.456679        12.4269 
 291   0.0000       0.457327        12.4445 
 292   0.0000       0.464138        12.6298 
 293   0.0000       0.466688        12.6992 
 294   0.0000       0.467850        12.7308 
 295   0.0000       0.470062        12.7910 
 296   0.0000       0.472454        12.8561 
 297   0.0000       0.477386        12.9903 
 298   0.0000       0.479828        13.0568 
 299   0.0000       0.481420        13.1001 
 300   0.0000       0.485779        13.2187 
 301   0.0000       0.490389        13.3442 
 302   0.0000       0.492276        13.3955 
 303   0.0000       0.494450        13.4547 
 304   0.0000       0.496756        13.5174 
 305   0.0000       0.498887        13.5754 
 306   0.0000       0.503287        13.6951 
 307   0.0000       0.504302        13.7228 
 308   0.0000       0.505329        13.7507 
 309   0.0000       0.509195        13.8559 
 310   0.0000       0.511893        13.9293 
 311   0.0000       0.513139        13.9632 
 312   0.0000       0.520280        14.1575 
 313   0.0000       0.522397        14.2151 
 314   0.0000       0.528413        14.3788 
 315   0.0000       0.529981        14.4215 
 316   0.0000       0.534336        14.5400 
 317   0.0000       0.538691        14.6585 
 318   0.0000       0.543857        14.7991 
 319   0.0000       0.546798        14.8791 
 320   0.0000       0.554641        15.0926 
 321   0.0000       0.556243        15.1361 
 322   0.0000       0.561410        15.2768 
 323   0.0000       0.564331        15.3562 
 324   0.0000       0.569830        15.5059 
 325   0.0000       0.574033        15.6202 
 326   0.0000       0.578633        15.7454 
 327   0.0000       0.589831        16.0501 
 328   0.0000       0.591423        16.0934 
 329   0.0000       0.598152        16.2765 
 330   0.0000       0.601249        16.3608 
 331   0.0000       0.605756        16.4835 
 332   0.0000       0.611044        16.6273 
 333   0.0000       0.613074        16.6826 
 334   0.0000       0.620172        16.8757 
 335   0.0000       0.624656        16.9978 
 336   0.0000       0.628612        17.1054 
 337   0.0000       0.634592        17.2681 
 338   0.0000       0.639758        17.4087 
 339   0.0000       0.642664        17.4878 
 340   0.0000       0.645570        17.5669 
 341   0.0000       0.651121        17.7179 
 342   0.0000       0.656835        17.8734 
 343   0.0000       0.661549        18.0017 
 344   0.0000       0.664155        18.0726 
 345   0.0000       0.666768        18.1437 
 346   0.0000       0.669088        18.2068 
 347   0.0000       0.672533        18.3006 
 348   0.0000       0.676858        18.4182 
 349   0.0000       0.678018        18.4498 
 350   0.0000       0.681161        18.5353 
 351   0.0000       0.684423        18.6241 
 352   0.0000       0.689646        18.7662 
 353   0.0000       0.690458        18.7883 
 354   0.0000       0.694114        18.8878 
 355   0.0000       0.698606        19.0100 
 356   0.0000       0.701406        19.0862 
 357   0.0000       0.707951        19.2643 
 358   0.0000       0.709470        19.3057 
 359   0.0000       0.713871        19.4254 
 360   0.0000       0.717417        19.5219 
 361   0.0000       0.719425        19.5766 
 362   0.0000       0.731425        19.9031 
 363   0.0000       0.732298        19.9269 
 364   0.0000       0.739195        20.1145 
 365   0.0000       0.744383        20.2557 
 366   0.0000       0.750644        20.4261 
 367   0.0000       0.752244        20.4696 
 368   0.0000       0.761881        20.7318 
 369   0.0000       0.773051        21.0358 
 370   0.0000       0.777742        21.1634 
 371   0.0000       0.782143        21.2832 
 372   0.0000       0.786046        21.3894 
 373   0.0000       0.789344        21.4791 
 374   0.0000       0.802187        21.8286 
 375   0.0000       0.812638        22.1130 
 376   0.0000       0.820047        22.3146 
 377   0.0000       0.827384        22.5143 
 378   0.0000       0.837307        22.7843 
 379   0.0000       0.842548        22.9269 
 380   0.0000       0.847078        23.0502 
 381   0.0000       0.854883        23.2625 
 382   0.0000       0.858390        23.3580 
 383   0.0000       0.872171        23.7330 
 384   0.0000       0.888190        24.1689 
 385   0.0000       0.889708        24.2102 
 386   0.0000       0.895529        24.3686 
 387   0.0000       0.914058        24.8728 
 388   0.0000       0.918522        24.9943 
 389   0.0000       0.937594        25.5132 
 390   0.0000       0.948789        25.8179 
 391   0.0000       0.976516        26.5723 
 392   0.0000       1.034951        28.1624 
 393   0.0000       1.058851        28.8128 
 394   0.0000       1.078138        29.3376 
 395   0.0000       1.131634        30.7933 
 396   0.0000       1.162821        31.6420 
 397   0.0000       1.191494        32.4222 
 398   0.0000       1.195815        32.5398 
 399   0.0000       1.204629        32.7796 
 400   0.0000       1.210229        32.9320 
 401   0.0000       1.230530        33.4844 
 402   0.0000       1.236620        33.6501 
 403   0.0000       1.243405        33.8348 
 404   0.0000       1.249838        34.0098 
 405   0.0000       1.253328        34.1048 
 406   0.0000       1.261869        34.3372 
 407   0.0000       1.265919        34.4474 
 408   0.0000       1.271138        34.5894 
 409   0.0000       1.277388        34.7595 
 410   0.0000       1.279529        34.8177 
 411   0.0000       1.290956        35.1287 
 412   0.0000       1.294278        35.2191 
 413   0.0000       1.294663        35.2296 
 414   0.0000       1.303724        35.4761 
 415   0.0000       1.309436        35.6316 
 416   0.0000       1.317234        35.8438 
 417   0.0000       1.318428        35.8762 
 418   0.0000       1.323773        36.0217 
 419   0.0000       1.327477        36.1225 
 420   0.0000       1.332101        36.2483 
 421   0.0000       1.335952        36.3531 
 422   0.0000       1.338298        36.4169 
 423   0.0000       1.342633        36.5349 
 424   0.0000       1.346805        36.6484 
 425   0.0000       1.348044        36.6821 
 426   0.0000       1.350016        36.7358 
 427   0.0000       1.353185        36.8220 
 428   0.0000       1.355222        36.8775 
 429   0.0000       1.356707        36.9179 
 430   0.0000       1.359579        36.9960 
 431   0.0000       1.361731        37.0546 
 432   0.0000       1.364745        37.1366 
 433   0.0000       1.367127        37.2014 
 434   0.0000       1.370111        37.2826 
 435   0.0000       1.373287        37.3690 
 436   0.0000       1.377054        37.4716 
 437   0.0000       1.379729        37.5443 
 438   0.0000       1.382049        37.6075 
 439   0.0000       1.385991        37.7147 
 440   0.0000       1.387666        37.7603 
 441   0.0000       1.388213        37.7752 
 442   0.0000       1.393042        37.9066 
 443   0.0000       1.397713        38.0337 
 444   0.0000       1.402028        38.1511 
 445   0.0000       1.406203        38.2647 
 446   0.0000       1.410253        38.3749 
 447   0.0000       1.412436        38.4343 
 448   0.0000       1.417683        38.5771 
 449   0.0000       1.420311        38.6486 
 450   0.0000       1.423870        38.7455 
 451   0.0000       1.427219        38.8366 
 452   0.0000       1.434905        39.0457 
 453   0.0000       1.437643        39.1203 
 454   0.0000       1.442735        39.2588 
 455   0.0000       1.446185        39.3527 
 456   0.0000       1.449180        39.4342 
 457   0.0000       1.452882        39.5349 
 458   0.0000       1.461804        39.7777 
 459   0.0000       1.462951        39.8089 
 460   0.0000       1.467595        39.9353 
 461   0.0000       1.468962        39.9725 
 462   0.0000       1.470136        40.0044 
 463   0.0000       1.475993        40.1638 
 464   0.0000       1.479259        40.2527 
 465   0.0000       1.481778        40.3212 
 466   0.0000       1.482216        40.3332 
 467   0.0000       1.484332        40.3907 
 468   0.0000       1.489864        40.5412 
 469   0.0000       1.490804        40.5668 
 470   0.0000       1.491828        40.5947 
 471   0.0000       1.496941        40.7338 
 472   0.0000       1.502259        40.8785 
 473   0.0000       1.503181        40.9036 
 474   0.0000       1.506585        40.9963 
 475   0.0000       1.511137        41.1201 
 476   0.0000       1.511587        41.1324 
 477   0.0000       1.514841        41.2209 
 478   0.0000       1.521199        41.3939 
 479   0.0000       1.522629        41.4328 
 480   0.0000       1.526142        41.5284 
 481   0.0000       1.529200        41.6117 
 482   0.0000       1.530377        41.6437 
 483   0.0000       1.532322        41.6966 
 484   0.0000       1.538906        41.8758 
 485   0.0000       1.540387        41.9161 
 486   0.0000       1.541778        41.9539 
 487   0.0000       1.545421        42.0531 
 488   0.0000       1.549033        42.1513 
 489   0.0000       1.551536        42.2194 
 490   0.0000       1.552693        42.2509 
 491   0.0000       1.555950        42.3396 
 492   0.0000       1.557976        42.3947 
 493   0.0000       1.563405        42.5424 
 494   0.0000       1.566657        42.6309 
 495   0.0000       1.569293        42.7026 
 496   0.0000       1.571709        42.7684 
 497   0.0000       1.576868        42.9088 
 498   0.0000       1.578376        42.9498 
 499   0.0000       1.579400        42.9777 
 500   0.0000       1.586370        43.1673 
 501   0.0000       1.588504        43.2254 
 502   0.0000       1.589847        43.2619 
 503   0.0000       1.593402        43.3587 
 504   0.0000       1.596853        43.4526 
 505   0.0000       1.601049        43.5667 
 506   0.0000       1.607339        43.7379 
 507   0.0000       1.612206        43.8704 
 508   0.0000       1.614307        43.9275 
 509   0.0000       1.619196        44.0606 
 510   0.0000       1.622451        44.1491 
 511   0.0000       1.625050        44.2199 
 512   0.0000       1.630828        44.3771 
 513   0.0000       1.641879        44.6778 
 514   0.0000       1.642472        44.6939 
 515   0.0000       1.645439        44.7747 
 516   0.0000       1.652491        44.9666 
 517   0.0000       1.660553        45.1859 
 518   0.0000       1.663792        45.2741 
 519   0.0000       1.667820        45.3837 
 520   0.0000       1.672126        45.5009 
 521   0.0000       1.677311        45.6419 
 522   0.0000       1.681652        45.7601 
 523   0.0000       1.683547        45.8117 
 524   0.0000       1.693486        46.0821 
 525   0.0000       1.698261        46.2120 
 526   0.0000       1.706697        46.4416 
 527   0.0000       1.710802        46.5533 
 528   0.0000       1.711827        46.5812 
 529   0.0000       1.712645        46.6034 
 530   0.0000       1.717968        46.7483 
 531   0.0000       1.722920        46.8830 
 532   0.0000       1.725389        46.9502 
 533   0.0000       1.727200        46.9995 
 534   0.0000       1.731234        47.1093 
 535   0.0000       1.735703        47.2309 
 536   0.0000       1.740196        47.3531 
 537   0.0000       1.742096        47.4048 
 538   0.0000       1.745023        47.4845 
 539   0.0000       1.748890        47.5897 
 540   0.0000       1.752123        47.6777 
 541   0.0000       1.756549        47.7981 
 542   0.0000       1.761017        47.9197 
 543   0.0000       1.763355        47.9833 
 544   0.0000       1.769339        48.1462 
 545   0.0000       1.775695        48.3191 
 546   0.0000       1.778157        48.3861 
 547   0.0000       1.783034        48.5188 
 548   0.0000       1.784783        48.5664 
 549   0.0000       1.790345        48.7178 
 550   0.0000       1.800927        49.0057 
 551   0.0000       1.804339        49.0986 
 552   0.0000       1.813132        49.3378 
 553   0.0000       1.821139        49.5557 
 554   0.0000       1.827527        49.7295 
 555   0.0000       1.835086        49.9352 
 556   0.0000       1.841664        50.1142 
 557   0.0000       1.846070        50.2341 
 558   0.0000       1.856949        50.5302 
 559   0.0000       1.864698        50.7410 
 560   0.0000       1.868069        50.8327 
 561   0.0000       1.879642        51.1477 
 562   0.0000       1.893118        51.5144 
 563   0.0000       1.894358        51.5481 
 564   0.0000       1.907999        51.9193 
 565   0.0000       1.918833        52.2141 
 566   0.0000       1.923185        52.3325 
 567   0.0000       1.925356        52.3916 
 568   0.0000       1.943674        52.8901 
 569   0.0000       1.944482        52.9120 
 570   0.0000       1.964770        53.4641 
 571   0.0000       1.967552        53.5398 
 572   0.0000       1.977110        53.7999 
 573   0.0000       1.984652        54.0051 
 574   0.0000       1.988829        54.1188 
 575   0.0000       2.003677        54.5228 
 576   0.0000       2.005120        54.5621 
 577   0.0000       2.015427        54.8426 
 578   0.0000       2.021174        54.9989 
 579   0.0000       2.040883        55.5353 
 580   0.0000       2.043846        55.6159 
 581   0.0000       2.058782        56.0223 
 582   0.0000       2.063145        56.1410 
 583   0.0000       2.067930        56.2712 
 584   0.0000       2.073902        56.4337 
 585   0.0000       2.089302        56.8528 
 586   0.0000       2.098852        57.1127 
 587   0.0000       2.112335        57.4796 
 588   0.0000       2.124299        57.8051 
 589   0.0000       2.129221        57.9391 
 590   0.0000       2.133146        58.0459 
 591   0.0000       2.142178        58.2916 
 592   0.0000       2.142728        58.3066 
 593   0.0000       2.148159        58.4544 
 594   0.0000       2.150507        58.5183 
 595   0.0000       2.159975        58.7759 
 596   0.0000       2.166556        58.9550 
 597   0.0000       2.175054        59.1862 
 598   0.0000       2.176844        59.2349 
 599   0.0000       2.180180        59.3257 
 600   0.0000       2.189207        59.5713 
 601   0.0000       2.191373        59.6303 
 602   0.0000       2.194014        59.7022 
 603   0.0000       2.197665        59.8015 
 604   0.0000       2.201309        59.9007 
 605   0.0000       2.205384        60.0115 
 606   0.0000       2.209617        60.1267 
 607   0.0000       2.215286        60.2810 
 608   0.0000       2.220108        60.4122 
 609   0.0000       2.221561        60.4517 
 610   0.0000       2.227839        60.6226 
 611   0.0000       2.230652        60.6991 
 612   0.0000       2.232205        60.7414 
 613   0.0000       2.237465        60.8845 
 614   0.0000       2.239481        60.9394 
 615   0.0000       2.246295        61.1248 
 616   0.0000       2.253199        61.3127 
 617   0.0000       2.254061        61.3361 
 618   0.0000       2.259736        61.4905 
 619   0.0000       2.265276        61.6413 
 620   0.0000       2.266837        61.6838 
 621   0.0000       2.268971        61.7418 
 622   0.0000       2.276395        61.9439 
 623   0.0000       2.276700        61.9521 
 624   0.0000       2.279058        62.0163 
 625   0.0000       2.281010        62.0694 
 626   0.0000       2.283104        62.1264 
 627   0.0000       2.288478        62.2727 
 628   0.0000       2.291592        62.3574 
 629   0.0000       2.295900        62.4746 
 630   0.0000       2.298437        62.5436 
 631   0.0000       2.301273        62.6208 
 632   0.0000       2.302276        62.6481 
 633   0.0000       2.307887        62.8008 
 634   0.0000       2.310417        62.8696 
 635   0.0000       2.315908        63.0190 
 636   0.0000       2.321527        63.1720 
 637   0.0000       2.331277        63.4373 
 638   0.0000       2.333317        63.4928 
 639   0.0000       2.337328        63.6019 
 640   0.0000       2.343070        63.7582 
 641   0.0000       2.348777        63.9135 
 642   0.0000       2.354705        64.0748 
 643   0.0000       2.360482        64.2320 
 644   0.0000       2.362290        64.2812 
 645   0.0000       2.372646        64.5630 
 646   0.0000       2.382026        64.8182 
 647   0.0000       2.389950        65.0338 
 648   0.0000       2.397453        65.2380 
 649   0.0000       2.400285        65.3151 
 650   0.0000       2.412197        65.6392 
 651   0.0000       2.423332        65.9422 
 652   0.0000       2.436243        66.2935 
 653   0.0000       2.463593        67.0378 
 654   0.0000       2.474414        67.3322 
 655   0.0000       2.482509        67.5525 
 656   0.0000       2.485592        67.6364 
 657   0.0000       2.511871        68.3515 
 658   0.0000       2.515534        68.4512 
 659   0.0000       2.527274        68.7706 
 660   0.0000       2.537129        69.0388 
 661   0.0000       2.540208        69.1226 
 662   0.0000       2.549864        69.3853 
 663   0.0000       2.551986        69.4431 
 664   0.0000       2.562195        69.7209 
 665   0.0000       2.567974        69.8781 
 666   0.0000       2.570974        69.9597 
 667   0.0000       2.572641        70.0051 
 668   0.0000       2.577539        70.1384 
 669   0.0000       2.579436        70.1900 
 670   0.0000       2.586180        70.3735 
 671   0.0000       2.597767        70.6888 
 672   0.0000       2.604524        70.8727 
 673   0.0000       2.607435        70.9519 
 674   0.0000       2.616778        71.2062 
 675   0.0000       2.633600        71.6639 
 676   0.0000       2.650317        72.1188 
 677   0.0000       2.656648        72.2911 
 678   0.0000       2.662190        72.4419 
 679   0.0000       2.674751        72.7837 
 680   0.0000       2.698726        73.4361 
 681   0.0000       2.705157        73.6111 
 682   0.0000       2.723644        74.1141 
 683   0.0000       2.727571        74.2210 
 684   0.0000       2.740081        74.5614 
 685   0.0000       2.757269        75.0291 
 686   0.0000       2.766570        75.2822 
 687   0.0000       2.777568        75.5815 
 688   0.0000       2.785160        75.7880 
 689   0.0000       2.789531        75.9070 
 690   0.0000       2.800126        76.1953 
 691   0.0000       2.810537        76.4786 
 692   0.0000       2.830089        77.0106 
 693   0.0000       2.837899        77.2232 
 694   0.0000       2.857430        77.7546 
 695   0.0000       2.867127        78.0185 
 696   0.0000       2.871394        78.1346 
 697   0.0000       2.885923        78.5300 
[...]
102:   1033.97   0.009123   46.10  0.002753  (-0.016861 -0.034955 -0.035316)
103:   1049.20   0.005592   28.26  0.001663  (-0.023813  0.033106  0.000390)
104:   1060.26   0.002628   13.28  0.000774  (-0.014049  0.001625  0.023949)
105:   1066.27   0.001042    5.27  0.000305  ( 0.015872  0.006114 -0.003967)
106:   1082.13   0.003453   17.45  0.000996  (-0.015501 -0.026942 -0.005451)
107:   1102.86   0.001086    5.49  0.000307  (-0.007243  0.015825  0.002127)
108:   1113.12   0.006715   33.94  0.001883  ( 0.041758  0.009823 -0.006513)
109:   1122.17   0.015633   79.00  0.004347  (-0.063601 -0.015205  0.008427)
110:   1152.46   0.003179   16.07  0.000861  ( 0.025672  0.012204  0.007271)
111:   1161.09   0.002647   13.38  0.000712  ( 0.017829  0.013548 -0.014496)
112:   1161.75   0.001563    7.90  0.000420  (-0.007378 -0.014633 -0.012302)
113:   1162.35   0.000796    4.02  0.000214  ( 0.004059 -0.012801 -0.005776)
114:   1167.99   0.000213    1.08  0.000057  (-0.004488 -0.005903 -0.001376)
115:   1171.66   0.002728   13.79  0.000727  ( 0.023934  0.007886  0.009565)
116:   1174.12   0.001997   10.09  0.000531  ( 0.004604  0.020153  0.010172)
117:   1191.42   0.006969   35.22  0.001825  ( 0.013382 -0.031543 -0.025520)
118:   1192.06   0.014291   72.22  0.003741  ( 0.025474 -0.047722 -0.028546)
119:   1203.09   0.057747  291.83  0.014979  ( 0.014445  0.105372  0.060555)
120:   1213.85   0.004940   24.96  0.001270  ( 0.013258  0.023397 -0.023382)
121:   1227.12   0.020019  101.17  0.005091  ( 0.067711  0.013692  0.017850)
122:   1250.10   0.024449  123.55  0.006103  (-0.038710  0.066403  0.013978)
123:   1254.16   0.061267  309.62  0.015245  (-0.113673 -0.017835 -0.044778)
124:   1270.32   0.013639   68.92  0.003350  (-0.006349 -0.035844 -0.045004)
125:   1276.32   0.021125  106.76  0.005165  (-0.054115  0.013544  0.045313)
126:   1284.47   0.022582  114.12  0.005486  ( 0.009211  0.066518  0.031255)
127:   1294.37   0.013461   68.02  0.003245  (-0.051995 -0.011027 -0.020500)
128:   1304.80   0.007200   36.38  0.001722  ( 0.027082 -0.013861 -0.028220)
129:   1313.54   0.003417   17.27  0.000812  (-0.025500 -0.007936  0.009923)
130:   1321.92   0.007300   36.89  0.001723  (-0.038015 -0.012350  0.011206)
131:   1326.39   0.077271  390.50  0.018180  (-0.128382  0.036100  0.019865)
132:   1334.12   0.055871  282.35  0.013069  ( 0.109024 -0.031960 -0.012695)
133:   1338.69   0.000802    4.06  0.000187  ( 0.002330  0.011736  0.006626)
134:   1352.73   0.032722  165.37  0.007549  (-0.084509 -0.017332  0.010330)
135:   1361.20   0.225682  1140.50  0.051739  (-0.209759 -0.068821 -0.054807)
136:   1388.15   0.198187  1001.55  0.044553  (-0.184160  0.045041  0.092789)
137:   1430.45   0.044195  223.34  0.009641  (-0.058560 -0.052423 -0.058856)
138:   1433.40   0.000907    4.58  0.000197  ( 0.002553 -0.004185  0.013171)
139:   1446.04   0.035591  179.86  0.007681  ( 0.087333 -0.007319 -0.000326)
140:   1455.38   0.026048  131.63  0.005585  ( 0.060191  0.023484  0.037560)
141:   1456.50   0.012174   61.52  0.002608  (-0.021659 -0.040396 -0.022528)
142:   1462.73   0.095699  483.63  0.020417  (-0.085659 -0.093379 -0.066028)
143:   1467.28   0.006251   31.59  0.001330  (-0.005722 -0.010865  0.034333)
144:   1476.14   0.066076  333.92  0.013969  ( 0.014434 -0.092694 -0.071890)
145:   1484.31   0.004673   23.62  0.000983  ( 0.024914  0.001676  0.018948)
146:   1506.29   0.014376   72.65  0.002978  (-0.022565 -0.038449  0.031479)
147:   1512.61   0.013112   66.26  0.002705  ( 0.050409 -0.006039 -0.011293)
148:   1528.93   0.033903  171.33  0.006920  ( 0.081926  0.013883 -0.003885)
149:   1530.46   0.012942   65.40  0.002639  ( 0.006412  0.016863 -0.048098)
150:   1538.98   0.000935    4.73  0.000190  (-0.007483 -0.006272 -0.009710)
151:   1548.99   0.003488   17.63  0.000703  (-0.022337 -0.009894 -0.010290)
152:   1551.44   0.040667  205.52  0.008180  (-0.089091  0.003709 -0.015135)
153:   1567.55   0.003142   15.88  0.000626  (-0.020094 -0.008974  0.011887)
154:   1569.98   0.002604   13.16  0.000518  ( 0.021683 -0.004889 -0.004853)
155:   1571.28   0.008999   45.48  0.001787  (-0.029893  0.029839  0.001798)
156:   1581.15   0.036208  182.98  0.007146  ( 0.073291  0.012911  0.040099)
157:   1593.35   0.008320   42.04  0.001629  ( 0.018002 -0.032768  0.015219)
158:   1599.45   0.000026    0.13  0.000005  (-0.000879 -0.001130 -0.001746)
159:   3029.39   0.009559   48.31  0.000985  ( 0.025443 -0.018317  0.001347)
160:   3031.58   0.000253    1.28  0.000026  (-0.004922 -0.001198  0.000624)
161:   3035.37   0.002630   13.29  0.000270  (-0.005823 -0.013760  0.006868)
162:   3035.90   0.008678   43.86  0.000892  (-0.002215  0.024742  0.016583)
163:   3039.79   0.005223   26.40  0.000536  ( 0.002560  0.016058 -0.016486)
164:   3041.21   0.000459    2.32  0.000047  ( 0.006599 -0.001633 -0.000918)
165:   3041.96   0.000309    1.56  0.000032  (-0.005598 -0.000508 -0.000396)
166:   3042.53   0.015754   79.61  0.001616  ( 0.016061 -0.030547 -0.020609)
167:   3046.09   0.001240    6.27  0.000127  ( 0.002163  0.011030  0.000859)
168:   3046.92   0.003733   18.86  0.000382  ( 0.014568  0.007051 -0.010970)
169:   3051.79   0.000141    0.71  0.000014  (-0.002786 -0.002473 -0.000748)
170:   3053.96   0.010424   52.68  0.001065  ( 0.031567  0.001009  0.008226)
171:   3054.41   0.021019  106.22  0.002147  (-0.031984 -0.028292 -0.018000)
172:   3055.26   0.008785   44.40  0.000897  ( 0.026793 -0.006363 -0.011788)
173:   3058.15   0.003971   20.07  0.000405  ( 0.013079 -0.011389 -0.010221)
174:   3059.16   0.016339   82.57  0.001667  (-0.031560 -0.010895  0.023495)
175:   3062.47   0.015334   77.49  0.001563  (-0.037250 -0.011203 -0.007035)
176:   3062.58   0.015523   78.45  0.001582  ( 0.006758 -0.038270  0.008450)
177:   3064.43   0.008728   44.11  0.000889  (-0.017489  0.023049 -0.007187)
178:   3064.99   0.015589   78.78  0.001587  (-0.023362  0.016017 -0.028016)
179:   3069.23   0.003344   16.90  0.000340  (-0.012379  0.005702 -0.012421)
180:   3073.80   0.007032   35.54  0.000714  (-0.007318  0.017211  0.019082)
181:   3074.67   0.006244   31.56  0.000634  ( 0.020830 -0.001054 -0.014098)
182:   3103.58   0.007025   35.50  0.000706  (-0.014644  0.019849  0.009893)

* The epsilon (eps) is given for a Dirac delta lineshape.
** The dipole moment derivative (T) already includes vibrational overlap.

The first frequency considered to be a vibration is 6
The total number of vibrations considered is 177


--------------------------
THERMOCHEMISTRY AT 298.15K
--------------------------

Temperature         ... 298.15 K
Pressure            ... 1.00 atm
Total Mass          ... 524.13 AMU

Throughout the following assumptions are being made:
  (1) The electronic state is orbitally nondegenerate
  (2) There are no thermally accessible electronically excited states
  (3) Hindered rotations indicated by low frequency modes are not
      treated as such but are treated as vibrations and this may
      cause some error
  (4) All equations used are the standard statistical mechanics
      equations for an ideal gas
  (5) All vibrations are strictly harmonic

freq.      35.11  E(vib)   ...       0.54 
freq.      39.26  E(vib)   ...       0.54 
freq.      47.98  E(vib)   ...       0.53 
freq.      67.71  E(vib)   ...       0.50 
freq.      76.65  E(vib)   ...       0.49 
freq.      88.33  E(vib)   ...       0.48 
freq.      93.21  E(vib)   ...       0.47 
freq.     103.11  E(vib)   ...       0.46 
freq.     109.65  E(vib)   ...       0.45 
freq.     113.77  E(vib)   ...       0.44 
freq.     130.70  E(vib)   ...       0.43 
freq.     138.79  E(vib)   ...       0.42 
freq.     148.67  E(vib)   ...       0.41 
freq.     156.31  E(vib)   ...       0.40 
freq.     170.10  E(vib)   ...       0.38 
freq.     189.48  E(vib)   ...       0.36 
freq.     198.92  E(vib)   ...       0.35 
freq.     212.42  E(vib)   ...       0.34 
freq.     240.88  E(vib)   ...       0.31 
freq.     243.73  E(vib)   ...       0.31 
freq.     260.48  E(vib)   ...       0.30 
freq.     272.63  E(vib)   ...       0.29 
freq.     288.73  E(vib)   ...       0.27 
freq.     296.03  E(vib)   ...       0.27 
freq.     312.24  E(vib)   ...       0.25 
freq.     328.41  E(vib)   ...       0.24 
freq.     338.15  E(vib)   ...       0.24 
freq.     366.41  E(vib)   ...       0.22 
freq.     389.83  E(vib)   ...       0.20 
freq.     396.98  E(vib)   ...       0.20 
freq.     423.02  E(vib)   ...       0.18 
freq.     430.36  E(vib)   ...       0.18 
freq.     434.52  E(vib)   ...       0.17 
freq.     464.50  E(vib)   ...       0.16 
freq.     484.26  E(vib)   ...       0.15 
freq.     493.64  E(vib)   ...       0.14 
freq.     509.69  E(vib)   ...       0.14 
freq.     526.75  E(vib)   ...       0.13 
freq.     528.70  E(vib)   ...       0.13 
freq.     531.08  E(vib)   ...       0.13 
freq.     540.22  E(vib)   ...       0.12 
freq.     548.48  E(vib)   ...       0.12 
freq.     558.94  E(vib)   ...       0.12 
freq.     565.47  E(vib)   ...       0.11 
freq.     589.12  E(vib)   ...       0.10 
freq.     603.36  E(vib)   ...       0.10 
freq.     608.25  E(vib)   ...       0.10 
freq.     619.93  E(vib)   ...       0.09 
freq.     628.36  E(vib)   ...       0.09 
freq.     634.32  E(vib)   ...       0.09 
freq.     650.19  E(vib)   ...       0.08 
freq.     652.55  E(vib)   ...       0.08 
freq.     663.28  E(vib)   ...       0.08 
freq.     690.10  E(vib)   ...       0.07 
freq.     695.72  E(vib)   ...       0.07 
freq.     697.97  E(vib)   ...       0.07 
freq.     709.81  E(vib)   ...       0.07 
freq.     722.06  E(vib)   ...       0.07 
freq.     723.93  E(vib)   ...       0.06 
freq.     741.42  E(vib)   ...       0.06 
freq.     742.51  E(vib)   ...       0.06 
freq.     755.36  E(vib)   ...       0.06 
freq.     761.35  E(vib)   ...       0.06 
freq.     772.43  E(vib)   ...       0.05 
freq.     777.74  E(vib)   ...       0.05 
freq.     785.47  E(vib)   ...       0.05 
freq.     803.75  E(vib)   ...       0.05 
freq.     814.07  E(vib)   ...       0.05 
freq.     826.55  E(vib)   ...       0.04 
freq.     829.72  E(vib)   ...       0.04 
freq.     841.19  E(vib)   ...       0.04 
freq.     859.37  E(vib)   ...       0.04 
freq.     864.50  E(vib)   ...       0.04 
freq.     867.96  E(vib)   ...       0.04 
freq.     881.32  E(vib)   ...       0.04 
freq.     884.94  E(vib)   ...       0.04 
freq.     891.43  E(vib)   ...       0.03 
freq.     896.67  E(vib)   ...       0.03 
freq.     909.60  E(vib)   ...       0.03 
freq.     918.61  E(vib)   ...       0.03 
freq.     918.96  E(vib)   ...       0.03 
freq.     920.00  E(vib)   ...       0.03 
freq.     932.54  E(vib)   ...       0.03 
freq.     932.87  E(vib)   ...       0.03 
freq.     938.74  E(vib)   ...       0.03 
freq.     942.97  E(vib)   ...       0.03 
freq.     947.79  E(vib)   ...       0.03 
freq.     953.63  E(vib)   ...       0.03 
freq.     962.34  E(vib)   ...       0.03 
freq.     966.48  E(vib)   ...       0.03 
freq.     967.66  E(vib)   ...       0.03 
freq.     996.06  E(vib)   ...       0.02 
freq.    1010.61  E(vib)   ...       0.02 
freq.    1020.31  E(vib)   ...       0.02 
freq.    1022.70  E(vib)   ...       0.02 
freq.    1031.45  E(vib)   ...       0.02 
freq.    1033.97  E(vib)   ...       0.02 
freq.    1049.20  E(vib)   ...       0.02 
freq.    1060.26  E(vib)   ...       0.02 
freq.    1066.27  E(vib)   ...       0.02 
freq.    1082.13  E(vib)   ...       0.02 
freq.    1102.86  E(vib)   ...       0.02 
freq.    1113.12  E(vib)   ...       0.01 
freq.    1122.17  E(vib)   ...       0.01 
freq.    1152.46  E(vib)   ...       0.01 
freq.    1161.09  E(vib)   ...       0.01 
freq.    1161.75  E(vib)   ...       0.01 
freq.    1162.35  E(vib)   ...       0.01 
freq.    1167.99  E(vib)   ...       0.01 
freq.    1171.66  E(vib)   ...       0.01 
freq.    1174.12  E(vib)   ...       0.01 
freq.    1191.42  E(vib)   ...       0.01 
freq.    1192.06  E(vib)   ...       0.01 
freq.    1203.09  E(vib)   ...       0.01 
freq.    1213.85  E(vib)   ...       0.01 
freq.    1227.12  E(vib)   ...       0.01 
freq.    1250.10  E(vib)   ...       0.01 
freq.    1254.16  E(vib)   ...       0.01 
freq.    1270.32  E(vib)   ...       0.01 
freq.    1276.32  E(vib)   ...       0.01 
freq.    1284.47  E(vib)   ...       0.01 
freq.    1294.37  E(vib)   ...       0.01 
freq.    1304.80  E(vib)   ...       0.01 
freq.    1313.54  E(vib)   ...       0.01 
freq.    1321.92  E(vib)   ...       0.01 
freq.    1326.39  E(vib)   ...       0.01 
freq.    1334.12  E(vib)   ...       0.01 
freq.    1338.69  E(vib)   ...       0.01 
freq.    1352.73  E(vib)   ...       0.01 
freq.    1361.20  E(vib)   ...       0.01 
freq.    1388.15  E(vib)   ...       0.00 
freq.    1430.45  E(vib)   ...       0.00 
freq.    1433.40  E(vib)   ...       0.00 
freq.    1446.04  E(vib)   ...       0.00 
freq.    1455.38  E(vib)   ...       0.00 
freq.    1456.50  E(vib)   ...       0.00 
freq.    1462.73  E(vib)   ...       0.00 
freq.    1467.28  E(vib)   ...       0.00 
freq.    1476.14  E(vib)   ...       0.00 
freq.    1484.31  E(vib)   ...       0.00 
freq.    1506.29  E(vib)   ...       0.00 
freq.    1512.61  E(vib)   ...       0.00 
freq.    1528.93  E(vib)   ...       0.00 
freq.    1530.46  E(vib)   ...       0.00 
freq.    1538.98  E(vib)   ...       0.00 
freq.    1548.99  E(vib)   ...       0.00 
freq.    1551.44  E(vib)   ...       0.00 
freq.    1567.55  E(vib)   ...       0.00 
freq.    1569.98  E(vib)   ...       0.00 
freq.    1571.28  E(vib)   ...       0.00 
freq.    1581.15  E(vib)   ...       0.00 
freq.    1593.35  E(vib)   ...       0.00 
freq.    1599.45  E(vib)   ...       0.00 
freq.    3029.39  E(vib)   ...       0.00 
freq.    3031.58  E(vib)   ...       0.00 
freq.    3035.37  E(vib)   ...       0.00 
freq.    3035.90  E(vib)   ...       0.00 
freq.    3039.79  E(vib)   ...       0.00 
freq.    3041.21  E(vib)   ...       0.00 
freq.    3041.96  E(vib)   ...       0.00 
freq.    3042.53  E(vib)   ...       0.00 
freq.    3046.09  E(vib)   ...       0.00 
freq.    3046.92  E(vib)   ...       0.00 
freq.    3051.79  E(vib)   ...       0.00 
freq.    3053.96  E(vib)   ...       0.00 
freq.    3054.41  E(vib)   ...       0.00 
freq.    3055.26  E(vib)   ...       0.00 
freq.    3058.15  E(vib)   ...       0.00 
freq.    3059.16  E(vib)   ...       0.00 
freq.    3062.47  E(vib)   ...       0.00 
freq.    3062.58  E(vib)   ...       0.00 
freq.    3064.43  E(vib)   ...       0.00 
freq.    3064.99  E(vib)   ...       0.00 
freq.    3069.23  E(vib)   ...       0.00 
freq.    3073.80  E(vib)   ...       0.00 
freq.    3074.67  E(vib)   ...       0.00 
freq.    3103.58  E(vib)   ...       0.00 

------------
INNER ENERGY
------------

The inner energy is: U= E(el) + E(ZPE) + E(vib) + E(rot) + E(trans)
    E(el)   - is the total energy from the electronic structure calculation
              = E(kin-el) + E(nuc-el) + E(el-el) + E(nuc-nuc)
    E(ZPE)  - the the zero temperature vibrational energy from the frequency calculation
    E(vib)  - the the finite temperature correction to E(ZPE) due to population
              of excited vibrational states
    E(rot)  - is the rotational thermal energy
    E(trans)- is the translational thermal energy

Summary of contributions to the inner energy U:
Electronic energy                ...  -3060.12748795 Eh
Zero point energy                ...      0.46649209 Eh     292.73 kcal/mol
Thermal vibrational correction   ...      0.02563069 Eh      16.08 kcal/mol
Thermal rotational correction    ...      0.00141627 Eh       0.89 kcal/mol
Thermal translational correction ...      0.00141627 Eh       0.89 kcal/mol
-----------------------------------------------------------------------
Total thermal energy                  -3059.63253263 Eh


Summary of corrections to the electronic energy:
(perhaps to be used in another calculation)
Total thermal correction                  0.02846323 Eh      17.86 kcal/mol
Non-thermal (ZPE) correction              0.46649209 Eh     292.73 kcal/mol
-----------------------------------------------------------------------
Total correction                          0.49495532 Eh     310.59 kcal/mol


--------
ENTHALPY
--------

The enthalpy is H = U + kB*T
                kB is Boltzmann's constant
Total free energy                 ...  -3059.63253263 Eh 
Thermal Enthalpy correction       ...      0.00094421 Eh       0.59 kcal/mol
-----------------------------------------------------------------------
Total Enthalpy                    ...  -3059.63158842 Eh


Note: Only C1 symmetry has been detected, increase convergence thresholds 
      if your molecule has a higher symmetry. Symmetry factor of 1.0 is   
      used for the rotational entropy correction. 
 

Note: Rotational entropy computed according to Herzberg 
Infrared and Raman Spectra, Chapter V,1, Van Nostrand Reinhold, 1945 
Point Group:  C1, Symmetry Number:   1  
Rotational constants in cm-1:     0.004714     0.003473     0.002560 

Vibrational entropy computed according to the QRRHO of S. Grimme
Chem.Eur.J. 2012 18 9955


-------
ENTROPY
-------

The entropy contributions are T*S = T*(S(el)+S(vib)+S(rot)+S(trans))
     S(el)   - electronic entropy
     S(vib)  - vibrational entropy
     S(rot)  - rotational entropy
     S(trans)- translational entropy
The entropies will be listed as multiplied by the temperature to get
units of energy

Electronic entropy                ...      0.00000000 Eh      0.00 kcal/mol
Vibrational entropy               ...      0.04386435 Eh     27.53 kcal/mol
Rotational entropy                ...      0.01753048 Eh     11.00 kcal/mol
Translational entropy             ...      0.02121739 Eh     13.31 kcal/mol
-----------------------------------------------------------------------
Final entropy term                ...      0.08261223 Eh     51.84 kcal/mol

In case the symmetry of your molecule has not been determined correctly
or in case you have a reason to use a different symmetry number we print 
out the resulting rotational entropy values for sn=1,12 :
 --------------------------------------------------------
|  sn= 1 | S(rot)=       0.01753048 Eh     11.00 kcal/mol|
|  sn= 2 | S(rot)=       0.01687603 Eh     10.59 kcal/mol|
|  sn= 3 | S(rot)=       0.01649319 Eh     10.35 kcal/mol|
|  sn= 4 | S(rot)=       0.01622157 Eh     10.18 kcal/mol|
|  sn= 5 | S(rot)=       0.01601088 Eh     10.05 kcal/mol|
|  sn= 6 | S(rot)=       0.01583874 Eh      9.94 kcal/mol|
|  sn= 7 | S(rot)=       0.01569319 Eh      9.85 kcal/mol|
|  sn= 8 | S(rot)=       0.01556711 Eh      9.77 kcal/mol|
|  sn= 9 | S(rot)=       0.01545590 Eh      9.70 kcal/mol|
|  sn=10 | S(rot)=       0.01535642 Eh      9.64 kcal/mol|
|  sn=11 | S(rot)=       0.01526643 Eh      9.58 kcal/mol|
|  sn=12 | S(rot)=       0.01518428 Eh      9.53 kcal/mol|
 --------------------------------------------------------


-------------------
GIBBS FREE ENERGY
-------------------

The Gibbs free energy is G = H - T*S

Total enthalpy                    ...  -3059.63158842 Eh 
Total entropy correction          ...     -0.08261223 Eh    -51.84 kcal/mol
-----------------------------------------------------------------------
Final Gibbs free energy         ...  -3059.71420064 Eh

For completeness - the Gibbs free energy minus the electronic energy
G-E(el)                           ...      0.41328731 Eh    259.34 kcal/mol



Timings for individual modules:

Sum of individual times         ...     3505.169 sec (=  58.419 min)
GTO integral calculation        ...        5.019 sec (=   0.084 min)   0.1 %
SCF iterations                  ...      123.211 sec (=   2.054 min)   3.5 %
SCF Gradient evaluation         ...       10.544 sec (=   0.176 min)   0.3 %
Numerical frequency calculation ...     3366.395 sec (=  56.107 min)  96.0 %
                             ****ORCA TERMINATED NORMALLY****
TOTAL RUN TIME: 0 days 0 hours 57 minutes 22 seconds 527 msec
