
                                 *****************
                                 * O   R   C   A *
                                 *****************

                                            #,                                       
                                            ###                                      
                                            ####                                     
                                            #####                                    
                                            ######                                   
                                           ########,                                 
                                     ,,################,,,,,                         
                               ,,#################################,,                 
                          ,,##########################################,,             
                       ,#########################################, ''#####,          
                    ,#############################################,,   '####,        
                  ,##################################################,,,,####,       
                ,###########''''           ''''###############################       
              ,#####''   ,,,,##########,,,,          '''####'''          '####       
            ,##' ,,,,###########################,,,                        '##       
           ' ,,###''''                  '''############,,,                           
         ,,##''                                '''############,,,,        ,,,,,,###''
      ,#''                                            '''#######################'''  
     '                                                          ''''####''''         
             ,#######,   #######,   ,#######,      ##                                
            ,#'     '#,  ##    ##  ,#'     '#,    #''#        ######   ,####,        
            ##       ##  ##   ,#'  ##            #'  '#       #        #'  '#        
            ##       ##  #######   ##           ,######,      #####,   #    #        
            '#,     ,#'  ##    ##  '#,     ,#' ,#      #,         ##   #,  ,#        
             '#######'   ##     ##  '#######'  #'      '#     #####' # '####'        



                  #######################################################
                  #                        -***-                        #
                  #          Department of theory and spectroscopy      #
                  #    Directorship and core code : Frank Neese         #
                  #        Max Planck Institute fuer Kohlenforschung    #
                  #                Kaiser Wilhelm Platz 1               #
                  #                 D-45470 Muelheim/Ruhr               #
                  #                      Germany                        #
                  #                                                     #
                  #                  All rights reserved                #
                  #                        -***-                        #
                  #######################################################


                         Program Version 5.0.1 -  RELEASE  -


 With contributions from (in alphabetic order):
   Daniel Aravena         : Magnetic Suceptibility
   Michael Atanasov       : Ab Initio Ligand Field Theory (pilot matlab implementation)
   Alexander A. Auer      : GIAO ZORA, VPT2 properties, NMR spectrum
   Ute Becker             : Parallelization
   Giovanni Bistoni       : ED, misc. LED, open-shell LED, HFLD
   Martin Brehm           : Molecular dynamics
   Dmytro Bykov           : SCF Hessian
   Vijay G. Chilkuri      : MRCI spin determinant printing, contributions to CSF-ICE
   Dipayan Datta          : RHF DLPNO-CCSD density
   Achintya Kumar Dutta   : EOM-CC, STEOM-CC
   Dmitry Ganyushin       : Spin-Orbit,Spin-Spin,Magnetic field MRCI
   Miquel Garcia          : C-PCM and meta-GGA Hessian, CC/C-PCM, Gaussian charge scheme
   Yang Guo               : DLPNO-NEVPT2, F12-NEVPT2, CIM, IAO-localization
   Andreas Hansen         : Spin unrestricted coupled pair/coupled cluster methods
   Benjamin Helmich-Paris : MC-RPA, TRAH-SCF, COSX integrals
   Lee Huntington         : MR-EOM, pCC
   Robert Izsak           : Overlap fitted RIJCOSX, COSX-SCS-MP3, EOM
   Marcus Kettner         : VPT2
   Christian Kollmar      : KDIIS, OOCD, Brueckner-CCSD(T), CCSD density, CASPT2, CASPT2-K
   Simone Kossmann        : Meta GGA functionals, TD-DFT gradient, OOMP2, MP2 Hessian
   Martin Krupicka        : Initial AUTO-CI
   Lucas Lang             : DCDCAS
   Marvin Lechner         : AUTO-CI (C++ implementation), FIC-MRCC
   Dagmar Lenk            : GEPOL surface, SMD
   Dimitrios Liakos       : Extrapolation schemes; Compound Job, initial MDCI parallelization
   Dimitrios Manganas     : Further ROCIS development; embedding schemes
   Dimitrios Pantazis     : SARC Basis sets
   Anastasios Papadopoulos: AUTO-CI, single reference methods and gradients
   Taras Petrenko         : DFT Hessian,TD-DFT gradient, ASA, ECA, R-Raman, ABS, FL, XAS/XES, NRVS
   Peter Pinski           : DLPNO-MP2, DLPNO-MP2 Gradient
   Christoph Reimann      : Effective Core Potentials
   Marius Retegan         : Local ZFS, SOC
   Christoph Riplinger    : Optimizer, TS searches, QM/MM, DLPNO-CCSD(T), (RO)-DLPNO pert. Triples
   Tobias Risthaus        : Range-separated hybrids, TD-DFT gradient, RPA, STAB
   Michael Roemelt        : Original ROCIS implementation
   Masaaki Saitow         : Open-shell DLPNO-CCSD energy and density
   Barbara Sandhoefer     : DKH picture change effects
   Avijit Sen             : IP-ROCIS
   Kantharuban Sivalingam : CASSCF convergence, NEVPT2, FIC-MRCI
   Bernardo de Souza      : ESD, SOC TD-DFT
   Georgi Stoychev        : AutoAux, RI-MP2 NMR, DLPNO-MP2 response
   Willem Van den Heuvel  : Paramagnetic NMR
   Boris Wezisla          : Elementary symmetry handling
   Frank Wennmohs         : Technical directorship


 We gratefully acknowledge several colleagues who have allowed us to
 interface, adapt or use parts of their codes:
   Stefan Grimme, W. Hujo, H. Kruse, P. Pracht,  : VdW corrections, initial TS optimization,
                  C. Bannwarth, S. Ehlert          DFT functionals, gCP, sTDA/sTD-DF
   Ed Valeev, F. Pavosevic, A. Kumar             : LibInt (2-el integral package), F12 methods
   Garnet Chan, S. Sharma, J. Yang, R. Olivares  : DMRG
   Ulf Ekstrom                                   : XCFun DFT Library
   Mihaly Kallay                                 : mrcc  (arbitrary order and MRCC methods)
   Jiri Pittner, Ondrej Demel                    : Mk-CCSD
   Frank Weinhold                                : gennbo (NPA and NBO analysis)
   Christopher J. Cramer and Donald G. Truhlar   : smd solvation model
   Lars Goerigk                                  : TD-DFT with DH, B97 family of functionals
   V. Asgeirsson, H. Jonsson                     : NEB implementation
   FAccTs GmbH                                   : IRC, NEB, NEB-TS, DLPNO-Multilevel, CI-OPT
                                                   MM, QMMM, 2- and 3-layer-ONIOM, Crystal-QMMM,
                                                   LR-CPCM, SF, NACMEs, symmetry and pop. for TD-DFT,
                                                   nearIR, NL-DFT gradient (VV10), updates on ESD,
                                                   ML-optimized integration grids
   S Lehtola, MJT Oliveira, MAL Marques          : LibXC Library
   Liviu Ungur et al                             : ANISO software


 Your calculation uses the libint2 library for the computation of 2-el integrals
 For citations please refer to: http://libint.valeyev.net

 Your ORCA version has been built with support for libXC version: 5.1.0
 For citations please refer to: https://tddft.org/programs/libxc/

 This ORCA versions uses:
   CBLAS   interface :  Fast vector & matrix operations
   LAPACKE interface :  Fast linear algebra routines
   SCALAPACK package :  Parallel linear algebra routines
   Shared memory     :  Shared parallel matrices
   BLAS/LAPACK       :  OpenBLAS 0.3.15  USE64BITINT DYNAMIC_ARCH NO_AFFINITY Zen SINGLE_THREADED
        Core in use  :  Zen
   Copyright (c) 2011-2014, The OpenBLAS Project


Your calculation utilizes the atom-pairwise dispersion correction
with the Becke-Johnson damping scheme (D3BJ)
Cite in your paper:
S.Grimme, S.Ehrlich, L.Goerigk, J Comput Chem, (2011), 32, 1456–1465 
S.Grimme, J.Antony, S.Ehrlich and H.Krieg, J.Chem.Phys., 132, (2010), 154104 
   

Your calculation employs the composite approach B97-3c by Grimme and coworkers.
For the correct reference, please check the publication list of the Grimme group:
http://www.thch.uni-bonn.de/tc/index.php?section=publikationen&subsection=grimme#2017
   

XCFun DFT library Copyright 2009-2010 Ulf Ekstrom and contributors.
See http://admol.org/xcfun for more information.
This is free software; see the source code for copying conditions.
There is ABSOLUTELY NO WARRANTY; not even for MERCHANTABILITY or FITNESS FOR A PARTICULAR PURPOSE.
For details see the documentation.
Scientific users of this library should cite U. Ekstrom, L. Visscher, R. Bast, A. J. Thorvaldsen and K. Ruud;
J.Chem.Theor.Comp. 2010, DOI: 10.1021/ct100117s
XCFun Version 0.99 

================================================================================

----- Orbital basis set information -----
Your calculation utilizes the basis: def2-SVP
   F. Weigend and R. Ahlrichs, Phys. Chem. Chem. Phys. 7, 3297 (2005).

The basis set includes atom-specific modifications.

Your calculation utilizes the basis: def2-TZVP
   F. Weigend and R. Ahlrichs, Phys. Chem. Chem. Phys. 7, 3297 (2005).

Your calculation utilizes the basis: STO-3G
   H-Ne       : W. J. Hehre, R. F. Stewart and J. A. Pople, J. Chem. Phys. 2657 (1969).
   Na-Ar      : W. J. Hehre, R. Ditchfield, R. F. Stewart and J. A. Pople, J. Chem. Phys. 2769 (1970).
   K,Ca,Ga-Kr : W. J. Pietro, B. A. Levy, W. J. Hehre and R. F. Stewart, J. Am. Chem. Soc. 19, 2225 (1980).
   Sc-Zn,Y-Cd : W. J. Pietro and W. J. Hehre, J. Comp. Chem. 4, 241 (1983).

----- AuxJ basis set information -----
Your calculation utilizes the basis: def2-mTZVP/J
================================================================================
                                        WARNINGS
                       Please study these warnings very carefully!
================================================================================


WARNING: Geometry Optimization
  ===> : Switching off AutoStart
         For restart on a previous wavefunction, please use MOREAD

INFO   : the flag for use of the SHARK integral package has been found!

================================================================================
                                       INPUT FILE
================================================================================
NAME = /scratch/negishi/li1724/Test-CentralizedCode-4-5/DFT/JHVUUIQHEXNRLG-UHFFFAOYSA-N/JHVUUIQHEXNRLG-UHFFFAOYSA-N-OPT.in
|  1> ! B97-3c def2-SVP CPCM(DMSO) defgrid2 OPT Freq
|  2> 
|  3> %scf
|  4>   MaxIter 500
|  5> end
|  6> 
|  7> %pal
|  8>   nproc 48
|  9> end
| 10> 
| 11> %maxcore 4800
| 12> 
| 13> %base "JHVUUIQHEXNRLG-UHFFFAOYSA-N-OPT"
| 14> 
| 15> *xyz -1 1
| 16> C   -3.02538973   0.80303064   0.00212763 
| 17> C   -4.59352060  -0.57659485   1.26990023 
| 18> C    1.82578836  -2.21025150  -1.99945774 
| 19> C   -0.26030313  -1.23096411  -1.25593003 
| 20> C   -3.64479298  -1.56566140   1.33567495 
| 21> C   -0.93469161  -2.28521523  -1.86120343 
| 22> C   -2.07148067  -0.28048338  -0.00963209 
| 23> C    1.13027851  -3.25577331  -2.58405374 
| 24> C   -2.74461296   2.03115296  -0.61239856 
| 25> C   -4.28845690   0.63921426   0.63175479 
| 26> C    1.16249397  -1.20263210  -1.30366583 
| 27> C   -2.38718055  -1.43424136   0.74437631 
| 28> C   -0.24888009  -3.29942345  -2.50704555 
| 29> C   -3.65234813   3.05844859  -0.62906138 
| 30> C   -5.20500326   1.71142584   0.60034289 
| 31> C   -1.68644459  -3.82731324   0.86763766 
| 32> C   -1.38289037  -2.47492323   1.00388616 
| 33> C   -4.90060081   2.89271325  -0.01839111 
| 34> C    2.92654656  -0.02381995  -0.09513310 
| 35> C    3.72067839  -1.14192440   0.25175110 
| 36> C    1.20274723   4.15342488   1.40643466 
| 37> C    2.18300092   3.16995859   1.43720803 newgto "def2-TZVP" end
| 38> C    0.45826224   4.36414774   0.26004562 
| 39> C    2.46750811   2.39584205   0.32161032 
| 40> C    3.36590523   1.24518361   0.41045818 
| 41> C   -0.73900370  -4.79647697   1.13817758 
| 42> C    4.90715982  -1.01058927   0.92955544 
| 43> C   -0.10691980  -2.12481038   1.44749872 
| 44> C    0.73590687   3.63349688  -0.88731950 
| 45> C    1.74294055   2.64857354  -0.87900711 
| 46> C    4.56363462   1.34097659   1.10397600 
| 47> C    5.36298961   0.23832015   1.33785594 
| 48> C    0.52779362  -4.43427298   1.56153346 
| 49> C    0.83685385  -3.09308815   1.72203697 
| 50> Cu   0.32490148   1.26520029  -0.72805698 newgto "def2-TZVP" end
| 51> H   -1.76430483   2.15249329  -1.07192883 newgto "STO-3G" end
| 52> H   -5.56318728  -0.70643007   1.73181830 newgto "STO-3G" end
| 53> H    2.90003077  -2.15765683  -2.11287628 newgto "STO-3G" end
| 54> H   -2.01660564  -2.29296123  -1.83630823 newgto "STO-3G" end
| 55> H   -3.85400385  -2.47046002   1.89412888 newgto "STO-3G" end
| 56> H    1.67260274  -4.03035889  -3.11208338 newgto "STO-3G" end
| 57> H   -2.66886362  -4.11800278   0.52025790 newgto "STO-3G" end
| 58> H   -0.79732192  -4.11097627  -2.96773773 newgto "STO-3G" end
| 59> H   -3.40912093   3.99668286  -1.10948998 newgto "STO-3G" end
| 60> H    3.36458961  -2.12639067  -0.01202541 newgto "STO-3G" end
| 61> H   -6.16354408   1.58111816   1.08775085 newgto "STO-3G" end
| 62> H    1.00873368   4.74323997   2.29189579 newgto "STO-3G" end
| 63> H    2.72202304   2.98456787   2.35653466 newgto "STO-3G" end
| 64> H   -5.61723875   3.70449053  -0.03202885 newgto "STO-3G" end
| 65> H   -0.32706445   5.10712159   0.25071699 newgto "STO-3G" end
| 66> H   -0.98741798  -5.84250601   1.01014758 newgto "STO-3G" end
| 67> H    0.14157679  -1.08014181   1.57502277 newgto "STO-3G" end
| 68> H    5.49288434  -1.89470736   1.15382693 newgto "STO-3G" end
| 69> H    0.24159647   3.88353755  -1.81697608 newgto "STO-3G" end
| 70> H    2.17221782   2.31625473  -1.82159972 newgto "STO-3G" end
| 71> H    4.88267634   2.31686449   1.45078955 newgto "STO-3G" end
| 72> H    6.30918987   0.34044962   1.85189675 newgto "STO-3G" end
| 73> H    1.27168877  -5.19309896   1.76425170 newgto "STO-3G" end
| 74> H    1.82132933  -2.79916182   2.05879500 newgto "STO-3G" end
| 75> N   -0.93581173  -0.14211319  -0.72127421 
| 76> N    1.76180335  -0.09216202  -0.75195483 
| 77> *
| 78> 
| 79>                          ****END OF INPUT****
================================================================================

                       *****************************
                       * Geometry Optimization Run *
                       *****************************

Geometry optimization settings:
Update method            Update   .... BFGS
Choice of coordinates    CoordSys .... Z-matrix Internals
Initial Hessian          InHess   .... Almoef's Model

Convergence Tolerances:
Energy Change            TolE     ....  5.0000e-06 Eh
Max. Gradient            TolMAXG  ....  3.0000e-04 Eh/bohr
RMS Gradient             TolRMSG  ....  1.0000e-04 Eh/bohr
Max. Displacement        TolMAXD  ....  4.0000e-03 bohr
RMS Displacement         TolRMSD  ....  2.0000e-03 bohr
Strict Convergence                ....  False
------------------------------------------------------------------------------
                        ORCA OPTIMIZATION COORDINATE SETUP
------------------------------------------------------------------------------

The optimization will be done in new redundant internal coordinates
Making redundant internal coordinates   ...  (new redundants) done
Evaluating the initial hessian          ...  (Almloef) done
Evaluating the coordinates              ...  done
Calculating the B-matrix                .... done
Calculating the G-matrix                .... done
Diagonalizing the G-matrix              .... done
Small eigenvalue found = 2.914e-03
Small eigenvalue found = 4.284e-03
Small eigenvalue found = 1.102e-02
Small eigenvalue found = 1.668e-02
Small eigenvalue found = 2.322e-02
Small eigenvalue found = 2.591e-02
Small eigenvalue found = 2.878e-02
The first mode is                       ....  332
The number of degrees of freedom        ....  177

    -----------------------------------------------------------------
                    Redundant Internal Coordinates


    -----------------------------------------------------------------
         Definition                    Initial Value    Approx d2E/dq
    -----------------------------------------------------------------
      1. B(C   4,C   1)                  1.3721         0.667259   
      2. B(C   5,C   3)                  1.3902         0.624383   
      3. B(C   6,C   0)                  1.4436         0.513058   
      4. B(C   7,C   2)                  1.3851         0.636061   
      5. B(C   8,C   0)                  1.4017         0.598511   
      6. B(C   9,C   0)                  1.4208         0.558004   
      7. B(C   9,C   1)                  1.4066         0.587863   
      8. B(C  10,C   3)                  1.4239         0.551678   
      9. B(C  10,C   2)                  1.3926         0.618818   
     10. B(C  11,C   6)                  1.4140         0.572101   
     11. B(C  11,C   4)                  1.3959         0.611434   
     12. B(C  12,C   5)                  1.3842         0.638203   
     13. B(C  12,C   7)                  1.3820         0.643440   
     14. B(C  13,C   8)                  1.3710         0.670004   
     15. B(C  14,C   9)                  1.4109         0.578588   
     16. B(C  16,C  15)                  1.3927         0.618586   
     17. B(C  16,C  11)                  1.4693         0.466826   
     18. B(C  17,C  14)                  1.3678         0.677836   
     19. B(C  17,C  13)                  1.3995         0.603430   
     20. B(C  19,C  18)                  1.4146         0.570781   
     21. B(C  21,C  20)                  1.3889         0.627321   
     22. B(C  22,C  20)                  1.3831         0.640918   
     23. B(C  23,C  21)                  1.3874         0.630893   
     24. B(C  24,C  23)                  1.4625         0.478635   
     25. B(C  24,C  18)                  1.4349         0.529728   
     26. B(C  25,C  15)                  1.3821         0.643268   
     27. B(C  26,C  19)                  1.3727         0.665704   
     28. B(C  27,C  16)                  1.3955         0.612257   
     29. B(C  28,C  22)                  1.3883         0.628705   
     30. B(C  29,C  28)                  1.4086         0.583450   
     31. B(C  29,C  23)                  1.4249         0.549604   
     32. B(C  30,C  24)                  1.3873         0.630943   
     33. B(C  31,C  30)                  1.3819         0.643777   
     34. B(C  31,C  26)                  1.3908         0.623012   
     35. B(C  32,C  25)                  1.3839         0.638940   
     36. B(C  33,C  32)                  1.3857         0.634835   
     37. B(C  33,C  27)                  1.3797         0.648830   
     38. B(Cu 34,C  29)                  1.9868         0.705862   
     39. B(Cu 34,C  28)                  2.4090         0.149681   
     40. B(Cu 34,C  23)                  2.6402         0.063999   
     41. B(Cu 34,C  10)                  2.6689         0.057603   
     42. B(Cu 34,C   3)                  2.6176         0.069545   
     43. B(H  35,C   8)                  1.0894         0.360832   
     44. B(H  36,C   1)                  1.0819         0.370994   
     45. B(H  37,C   2)                  1.0815         0.371532   
     46. B(H  38,C   5)                  1.0822         0.370529   
     47. B(H  39,C   4)                  1.0837         0.368597   
     48. B(H  40,C   7)                  1.0830         0.369465   
     49. B(H  41,C  15)                  1.0818         0.371094   
     50. B(H  42,C  12)                  1.0824         0.370262   
     51. B(H  43,C  13)                  1.0818         0.371136   
     52. B(H  44,C  19)                  1.0796         0.374115   
     53. B(H  45,C  14)                  1.0832         0.369193   
     54. B(H  46,C  20)                  1.0815         0.371571   
     55. B(H  47,C  21)                  1.0817         0.371248   
     56. B(H  48,C  17)                  1.0829         0.369575   
     57. B(H  49,C  22)                  1.0811         0.372032   
     58. B(H  50,C  25)                  1.0827         0.369863   
     59. B(H  51,C  27)                  1.0814         0.371709   
     60. B(H  52,C  26)                  1.0840         0.368138   
     61. B(H  53,C  28)                  1.0822         0.370588   
     62. B(H  54,C  29)                  1.0877         0.363092   
     63. B(H  55,C  30)                  1.0837         0.368520   
     64. B(H  56,C  31)                  1.0816         0.371319   
     65. B(H  57,C  32)                  1.0818         0.371112   
     66. B(H  58,H  44)                  2.6688         0.000209   
     67. B(H  58,C  33)                  1.0812         0.371933   
     68. B(N  59,Cu 34)                  1.8894         0.904022   
     69. B(N  59,C   6)                  1.3473         0.654541   
     70. B(N  59,C   3)                  1.3884         0.562814   
     71. B(N  60,Cu 34)                  1.9768         0.655870   
     72. B(N  60,C  18)                  1.3389         0.675098   
     73. B(N  60,C  10)                  1.3772         0.586523   
     74. A(C   6,C   0,C   9)          120.2977         0.411802   
     75. A(C   6,C   0,C   8)          121.4445         0.416962   
     76. A(C   8,C   0,C   9)          118.2543         0.423256   
     77. A(C   9,C   1,H  36)          119.4603         0.351514   
     78. A(C   4,C   1,C   9)          119.6604         0.435650   
     79. A(C   4,C   1,H  36)          120.8470         0.359150   
     80. A(C  10,C   2,H  37)          119.3610         0.354668   
     81. A(C   7,C   2,C  10)          121.1883         0.435919   
     82. A(C   7,C   2,H  37)          119.4198         0.356325   
     83. A(Cu 34,C   3,N  59)           44.2153         0.324672   
     84. A(C   5,C   3,N  59)          121.7602         0.424347   
     85. A(C   5,C   3,Cu 34)          156.8417         0.332277   
     86. A(C  10,C   3,Cu 34)           76.3726         0.325555   
     87. A(C  10,C   3,N  59)          118.9116         0.415081   
     88. A(C   5,C   3,C  10)          119.0277         0.425603   
     89. A(C  11,C   4,H  39)          118.0893         0.353472   
     90. A(C   1,C   4,H  39)          119.5434         0.358754   
     91. A(C   1,C   4,C  11)          122.3288         0.438748   
     92. A(C  12,C   5,H  38)          120.0526         0.356365   
     93. A(C   3,C   5,C  12)          121.2275         0.436888   
     94. A(C   3,C   5,H  38)          118.7102         0.355044   
     95. A(C   0,C   6,N  59)          118.9589         0.420919   
     96. A(C  11,C   6,N  59)          123.6175         0.429204   
     97. A(C   0,C   6,C  11)          117.4222         0.413630   
     98. A(C   2,C   7,C  12)          120.0937         0.438997   
     99. A(C  12,C   7,H  40)          120.2853         0.356686   
    100. A(C   2,C   7,H  40)          119.6161         0.355988   
    101. A(C   0,C   8,C  13)          121.9530         0.437385   
    102. A(C   0,C   8,H  35)          117.5650         0.350931   
    103. A(C  13,C   8,H  35)          120.4770         0.357706   
    104. A(C   0,C   9,C   1)          119.5724         0.421900   
    105. A(C   0,C   9,C  14)          118.6864         0.420704   
    106. A(C   1,C   9,C  14)          121.7410         0.424641   
    107. A(C   2,C  10,Cu 34)          157.8597         0.321649   
    108. A(C   3,C  10,Cu 34)           72.3966         0.315679   
    109. A(C   2,C  10,C   3)          118.5734         0.424922   
    110. A(C   2,C  10,N  60)          125.1903         0.426808   
    111. A(Cu 34,C  10,N  60)           45.9408         0.316952   
    112. A(C   3,C  10,N  60)          115.9410         0.418140   
    113. A(C   4,C  11,C   6)          120.2557         0.426778   
    114. A(C   6,C  11,C  16)          121.2983         0.406765   
    115. A(C   4,C  11,C  16)          118.3135         0.411583   
    116. A(C   7,C  12,H  42)          120.3714         0.356816   
    117. A(C   5,C  12,C   7)          119.8208         0.439263   
    118. A(C   5,C  12,H  42)          119.7941         0.356321   
    119. A(C   8,C  13,C  17)          119.7700         0.438031   
    120. A(C  17,C  13,H  43)          119.8048         0.353094   
    121. A(C   8,C  13,H  43)          120.4251         0.359424   
    122. A(C   9,C  14,C  17)          121.4536         0.435636   
    123. A(C  17,C  14,H  45)          120.2893         0.359815   
    124. A(C   9,C  14,H  45)          118.2558         0.350283   
    125. A(C  16,C  15,C  25)          120.8218         0.436776   
    126. A(C  16,C  15,H  41)          119.3584         0.354574   
    127. A(C  25,C  15,H  41)          119.7997         0.356936   
    128. A(C  11,C  16,C  27)          120.2250         0.411681   
    129. A(C  11,C  16,C  15)          121.4331         0.412433   
    130. A(C  15,C  16,C  27)          118.2945         0.432908   
    131. A(C  14,C  17,H  48)          120.3852         0.359878   
    132. A(C  13,C  17,H  48)          119.7346         0.352842   
    133. A(C  13,C  17,C  14)          119.8785         0.438950   
    134. A(C  19,C  18,C  24)          116.1493         0.415817   
    135. A(C  24,C  18,N  60)          118.9694         0.425678   
    136. A(C  19,C  18,N  60)          124.6316         0.431414   
    137. A(C  18,C  19,C  26)          122.0505         0.433162   
    138. A(C  26,C  19,H  44)          119.5354         0.359519   
    139. A(C  18,C  19,H  44)          118.4029         0.350262   
    140. A(C  21,C  20,C  22)          120.4083         0.437592   
    141. A(C  22,C  20,H  46)          119.9331         0.356792   
    142. A(C  21,C  20,H  46)          119.6471         0.355496   
    143. A(C  20,C  21,C  23)          121.4676         0.436351   
    144. A(C  23,C  21,H  47)          119.0512         0.355786   
    145. A(C  20,C  21,H  47)          119.4645         0.355443   
    146. A(C  28,C  22,H  49)          119.9880         0.355704   
    147. A(C  20,C  22,H  49)          120.1898         0.356867   
    148. A(C  20,C  22,C  28)          119.8142         0.437766   
    149. A(C  21,C  23,C  24)          121.0718         0.415721   
    150. A(C  29,C  23,Cu 34)           47.8024         0.320948   
    151. A(C  24,C  23,Cu 34)          100.7037         0.313802   
    152. A(C  21,C  23,Cu 34)          113.0923         0.328304   
    153. A(C  21,C  23,C  29)          118.3137         0.426107   
    154. A(C  24,C  23,C  29)          120.2046         0.405678   
    155. A(C  18,C  24,C  23)          119.0970         0.403049   
    156. A(C  23,C  24,C  30)          120.4219         0.415727   
    157. A(C  18,C  24,C  30)          120.1019         0.423314   
    158. A(C  32,C  25,H  50)          119.9373         0.356326   
    159. A(C  15,C  25,H  50)          119.8049         0.356735   
    160. A(C  15,C  25,C  32)          120.2559         0.439333   
    161. A(C  31,C  26,H  52)          119.6420         0.354522   
    162. A(C  19,C  26,H  52)          119.4162         0.358535   
    163. A(C  19,C  26,C  31)          120.9409         0.440051   
    164. A(C  33,C  27,H  51)          119.8229         0.357560   
    165. A(C  16,C  27,H  51)          119.3387         0.354056   
    166. A(C  16,C  27,C  33)          120.8383         0.436644   
    167. A(C  29,C  28,Cu 34)           55.5410         0.373959   
    168. A(C  22,C  28,Cu 34)          115.3817         0.378819   
    169. A(Cu 34,C  28,H  53)          101.8888         0.311397   
    170. A(C  29,C  28,H  53)          119.5489         0.351001   
    171. A(C  22,C  28,H  53)          119.8029         0.355469   
    172. A(C  22,C  28,C  29)          120.4030         0.430429   
    173. A(C  23,C  29,Cu 34)          100.1031         0.488355   
    174. A(C  28,C  29,Cu 34)           88.6847         0.493793   
    175. A(Cu 34,C  29,H  54)           97.7464         0.403464   
    176. A(C  28,C  29,H  54)          119.3822         0.349792   
    177. A(C  23,C  29,H  54)          118.3781         0.346289   
    178. A(C  23,C  29,C  28)          119.5061         0.420194   
    179. A(C  31,C  30,H  55)          119.6105         0.356562   
    180. A(C  24,C  30,H  55)          118.4453         0.355346   
    181. A(C  24,C  30,C  31)          121.9323         0.438399   
    182. A(C  30,C  31,H  56)          120.7384         0.357021   
    183. A(C  26,C  31,H  56)          120.7316         0.355040   
    184. A(C  26,C  31,C  30)          118.5077         0.437400   
    185. A(C  33,C  32,H  57)          120.2553         0.356140   
    186. A(C  25,C  32,H  57)          120.2115         0.356530   
    187. A(C  25,C  32,C  33)          119.5331         0.438289   
    188. A(C  32,C  33,H  58)          120.1518         0.356274   
    189. A(C  27,C  33,H  58)          119.6058         0.357596   
    190. A(C  27,C  33,C  32)          120.2417         0.439505   
    191. A(C  23,Cu 34,N  59)          149.2059         0.387074   
    192. A(C  10,Cu 34,N  59)           61.4100         0.380054   
    193. A(C   3,Cu 34,N  59)           30.8270         0.392735   
    194. A(C  23,Cu 34,C  28)           57.7797         0.288568   
    195. A(C  10,Cu 34,C  28)          147.2718         0.283868   
    196. A(C   3,Cu 34,C  28)          164.2196         0.292358   
    197. A(C  10,Cu 34,C  23)          103.1224         0.249777   
    198. A(C   3,Cu 34,C  23)          132.0641         0.256781   
    199. A(C  28,Cu 34,N  59)          147.8154         0.450278   
    200. A(C   3,Cu 34,C  10)           31.2308         0.252830   
    201. A(N  59,Cu 34,N  60)           88.4880         0.590802   
    202. A(C  29,Cu 34,N  60)           87.6148         0.566254   
    203. A(C  28,Cu 34,N  60)          123.3835         0.424969   
    204. A(C  23,Cu 34,N  60)           73.0805         0.366192   
    205. A(C  10,Cu 34,N  60)           30.0434         0.359665   
    206. A(C   3,Cu 34,N  60)           60.3486         0.371457   
    207. A(C  28,Cu 34,C  29)           35.7743         0.432605   
    208. A(C  23,Cu 34,C  29)           32.0945         0.372492   
    209. A(C  10,Cu 34,C  29)          113.7938         0.365816   
    210. A(C   3,Cu 34,C  29)          143.9224         0.377876   
    211. A(C  29,Cu 34,N  59)          174.3379         0.602206   
    212. A(C   3,N  59,C   6)          122.2044         0.425157   
    213. A(C   6,N  59,Cu 34)          129.8520         0.522241   
    214. A(C   3,N  59,Cu 34)          104.9577         0.507685   
    215. A(C  18,N  60,Cu 34)          126.2528         0.494720   
    216. A(C  10,N  60,Cu 34)          104.0158         0.482008   
    217. A(C  10,N  60,C  18)          128.0412         0.430695   
    218. D(H  39,C   4,C   1,H  36)     -2.6889         0.031119   
    219. D(C  11,C   4,C   1,H  36)    179.6138         0.031119   
    220. D(C  11,C   4,C   1,C   9)     -2.4645         0.031119   
    221. D(H  39,C   4,C   1,C   9)    175.2328         0.031119   
    222. D(H  38,C   5,C   3,N  59)     -5.3475         0.029342   
    223. D(C  12,C   5,C   3,N  59)    173.5197         0.029342   
    224. D(H  38,C   5,C   3,Cu 34)    -51.2306         0.029342   
    225. D(C  12,C   5,C   3,Cu 34)    127.6366         0.029342   
    226. D(H  38,C   5,C   3,C  10)   -178.9811         0.029342   
    227. D(C  12,C   5,C   3,C  10)     -0.1139         0.029342   
    228. D(N  59,C   6,C   0,C   8)     -5.5536         0.017942   
    229. D(C  11,C   6,C   0,C   9)     -6.6637         0.017942   
    230. D(N  59,C   6,C   0,C   9)    173.7545         0.017942   
    231. D(C  11,C   6,C   0,C   8)    174.0282         0.017942   
    232. D(C  12,C   7,C   2,H  37)   -176.6409         0.028086   
    233. D(H  40,C   7,C   2,C  10)   -179.4825         0.028086   
    234. D(C  12,C   7,C   2,C  10)      1.3206         0.028086   
    235. D(H  40,C   7,C   2,H  37)      2.5560         0.028086   
    236. D(H  35,C   8,C   0,C   9)    178.6339         0.024688   
    237. D(C  13,C   8,C   0,C   6)    178.7645         0.024688   
    238. D(H  35,C   8,C   0,C   6)     -2.0442         0.024688   
    239. D(C  13,C   8,C   0,C   9)     -0.5574         0.024688   
    240. D(C   1,C   9,C   0,C   6)      1.3802         0.021323   
    241. D(C  14,C   9,C   1,C   4)   -176.5884         0.023773   
    242. D(C   0,C   9,C   1,C   4)      3.2521         0.023773   
    243. D(C  14,C   9,C   0,C   8)      0.5556         0.021323   
    244. D(C   1,C   9,C   0,C   8)   -179.2899         0.021323   
    245. D(C   0,C   9,C   1,H  36)   -178.7972         0.023773   
    246. D(C  14,C   9,C   0,C   6)   -178.7743         0.021323   
    247. D(C  14,C   9,C   1,H  36)      1.3623         0.023773   
    248. D(N  60,C  10,C   3,N  59)      2.5826         0.024268   
    249. D(C   3,C  10,C   2,C   7)     -2.9357         0.028787   
    250. D(C   3,C  10,C   2,H  37)    175.0270         0.028787   
    251. D(N  60,C  10,C   2,H  37)      1.5368         0.028787   
    252. D(Cu 34,C  10,C   3,C   5)    161.3394         0.024268   
    253. D(Cu 34,C  10,C   3,N  59)    -12.4776         0.024268   
    254. D(N  60,C  10,C   3,Cu 34)     15.0601         0.024268   
    255. D(C   2,C  10,C   3,C   5)      2.3135         0.024268   
    256. D(C   2,C  10,C   3,Cu 34)   -159.0259         0.024268   
    257. D(C   2,C  10,C   3,N  59)   -171.5035         0.024268   
    258. D(N  60,C  10,C   2,C   7)   -176.4259         0.028787   
    259. D(N  60,C  10,C   3,C   5)    176.3995         0.024268   
    260. D(Cu 34,C  10,C   2,H  37)     59.8902         0.028787   
    261. D(Cu 34,C  10,C   2,C   7)   -118.0725         0.028787   
    262. D(C   6,C  11,C   4,C   1)     -3.1122         0.025827   
    263. D(C  16,C  11,C   6,C   0)   -168.2352         0.022459   
    264. D(C  16,C  11,C   4,C   1)    172.7576         0.025827   
    265. D(C   6,C  11,C   4,H  39)    179.1586         0.025827   
    266. D(C   4,C  11,C   6,N  59)   -172.9302         0.022459   
    267. D(C   4,C  11,C   6,C   0)      7.5092         0.022459   
    268. D(C  16,C  11,C   4,H  39)     -4.9717         0.025827   
    269. D(C  16,C  11,C   6,N  59)     11.3255         0.022459   
    270. D(H  42,C  12,C   7,C   2)    179.6046         0.028786   
    271. D(C   5,C  12,C   7,H  40)   -178.2384         0.028786   
    272. D(H  42,C  12,C   5,C   3)    179.7994         0.028288   
    273. D(C   7,C  12,C   5,C   3)     -1.5413         0.028288   
    274. D(H  42,C  12,C   5,H  38)     -1.3485         0.028288   
    275. D(C   7,C  12,C   5,H  38)    177.3108         0.028288   
    276. D(H  42,C  12,C   7,H  40)      0.4131         0.028786   
    277. D(C   5,C  12,C   7,C   2)      0.9531         0.028786   
    278. D(C  17,C  13,C   8,C   0)      0.0352         0.031395   
    279. D(C  17,C  13,C   8,H  35)   -179.1329         0.031395   
    280. D(H  43,C  13,C   8,C   0)    179.9182         0.031395   
    281. D(H  43,C  13,C   8,H  35)      0.7500         0.031395   
    282. D(H  45,C  14,C   9,C   1)      0.2082         0.022994   
    283. D(C  17,C  14,C   9,C   1)    179.7954         0.022994   
    284. D(H  45,C  14,C   9,C   0)   -179.6337         0.022994   
    285. D(C  17,C  14,C   9,C   0)     -0.0465         0.022994   
    286. D(C  27,C  16,C  15,H  41)   -179.6944         0.026471   
    287. D(C  27,C  16,C  15,C  25)     -1.3297         0.026471   
    288. D(C  15,C  16,C  11,C   4)     48.9108         0.014841   
    289. D(C  11,C  16,C  15,H  41)      2.8056         0.026471   
    290. D(C  15,C  16,C  11,C   6)   -135.2646         0.014841   
    291. D(C  27,C  16,C  11,C   6)     47.2831         0.014841   
    292. D(C  11,C  16,C  15,C  25)   -178.8297         0.026471   
    293. D(C  27,C  16,C  11,C   4)   -128.5415         0.014841   
    294. D(H  48,C  17,C  14,H  45)     -0.4186         0.032191   
    295. D(C  13,C  17,C  14,C   9)     -0.4840         0.032191   
    296. D(H  48,C  17,C  14,C   9)   -179.9975         0.032191   
    297. D(H  48,C  17,C  13,H  43)      0.1259         0.025118   
    298. D(C  14,C  17,C  13,H  43)   -179.3908         0.025118   
    299. D(C  14,C  17,C  13,C   8)      0.4928         0.025118   
    300. D(H  48,C  17,C  13,C   8)   -179.9904         0.025118   
    301. D(C  13,C  17,C  14,H  45)    179.0950         0.032191   
    302. D(H  44,C  19,C  18,N  60)     -1.0788         0.022351   
    303. D(H  44,C  19,C  18,C  24)    173.1002         0.022351   
    304. D(C  26,C  19,C  18,N  60)   -179.8553         0.022351   
    305. D(C  26,C  19,C  18,C  24)     -5.6764         0.022351   
    306. D(H  47,C  21,C  20,C  22)   -176.9477         0.027271   
    307. D(H  47,C  21,C  20,H  46)      1.8159         0.027271   
    308. D(C  23,C  21,C  20,H  46)   -179.6839         0.027271   
    309. D(C  23,C  21,C  20,C  22)      1.5525         0.027271   
    310. D(H  49,C  22,C  20,C  21)    177.8710         0.028546   
    311. D(H  49,C  22,C  20,H  46)     -0.8891         0.028546   
    312. D(C  28,C  22,C  20,H  46)    178.0810         0.028546   
    313. D(C  28,C  22,C  20,C  21)     -3.1589         0.028546   
    314. D(Cu 34,C  23,C  21,C  20)    -51.9973         0.030000   
    315. D(Cu 34,C  23,C  21,H  47)    126.5090         0.030000   
    316. D(C  29,C  23,C  21,H  47)    179.6596         0.030000   
    317. D(C  29,C  23,C  21,C  20)      1.1533         0.030000   
    318. D(C  24,C  23,C  21,H  47)      6.9939         0.030000   
    319. D(C  24,C  23,C  21,C  20)   -171.5123         0.030000   
    320. D(C  30,C  24,C  23,Cu 34)   -170.1668         0.016892   
    321. D(C  18,C  24,C  23,C  29)    -44.3103         0.016892   
    322. D(C  30,C  24,C  18,C  19)      4.9471         0.019153   
    323. D(C  23,C  24,C  18,N  60)      6.5109         0.019153   
    324. D(C  23,C  24,C  18,C  19)   -168.0155         0.019153   
    325. D(C  18,C  24,C  23,C  21)    128.2176         0.016892   
    326. D(C  30,C  24,C  23,C  21)    -44.7218         0.016892   
    327. D(C  18,C  24,C  23,Cu 34)      2.7727         0.016892   
    328. D(C  30,C  24,C  18,N  60)    179.4735         0.019153   
    329. D(C  30,C  24,C  23,C  29)    142.7502         0.016892   
    330. D(H  50,C  25,C  15,H  41)     -0.5764         0.028770   
    331. D(C  32,C  25,C  15,C  16)      0.5574         0.028770   
    332. D(H  50,C  25,C  15,C  16)   -178.9339         0.028770   
    333. D(C  32,C  25,C  15,H  41)    178.9149         0.028770   
    334. D(H  52,C  26,C  19,H  44)      2.6253         0.030963   
    335. D(C  31,C  26,C  19,H  44)   -177.0180         0.030963   
    336. D(C  31,C  26,C  19,C  18)      1.7451         0.030963   
    337. D(H  52,C  26,C  19,C  18)   -178.6117         0.030963   
    338. D(H  51,C  27,C  16,C  15)   -178.9936         0.025900   
    339. D(C  33,C  27,C  16,C  15)      1.0929         0.025900   
    340. D(H  51,C  27,C  16,C  11)     -1.4623         0.025900   
    341. D(C  33,C  27,C  16,C  11)    178.6242         0.025900   
    342. D(Cu 34,C  28,C  22,C  20)     65.4365         0.029778   
    343. D(C  29,C  28,C  22,H  49)   -178.9931         0.029778   
    344. D(C  29,C  28,C  22,C  20)      2.0347         0.029778   
    345. D(H  53,C  28,C  22,H  49)      6.7205         0.029778   
    346. D(H  53,C  28,C  22,C  20)   -172.2517         0.029778   
    347. D(Cu 34,C  28,C  22,H  49)   -115.5913         0.029778   
    348. D(H  54,C  29,C  28,H  53)     13.9955         0.027303   
    349. D(H  54,C  29,C  28,Cu 34)     98.1520         0.027303   
    350. D(H  54,C  29,C  28,C  22)   -160.3054         0.027303   
    351. D(Cu 34,C  29,C  28,C  22)    101.5426         0.027303   
    352. D(C  23,C  29,C  28,H  53)    174.9712         0.027303   
    353. D(C  23,C  29,C  28,Cu 34)   -100.8723         0.027303   
    354. D(C  23,C  29,C  28,C  22)      0.6703         0.027303   
    355. D(H  54,C  29,C  23,Cu 34)   -104.5879         0.024078   
    356. D(H  54,C  29,C  23,C  24)    -28.3389         0.024078   
    357. D(H  54,C  29,C  23,C  21)    158.9296         0.024078   
    358. D(Cu 34,C  29,C  28,H  53)    -84.1565         0.027303   
    359. D(Cu 34,C  29,C  23,C  21)    -96.4825         0.024078   
    360. D(C  28,C  29,C  23,C  24)    170.4954         0.024078   
    361. D(C  28,C  29,C  23,Cu 34)     94.2463         0.024078   
    362. D(C  28,C  29,C  23,C  21)     -2.2361         0.024078   
    363. D(Cu 34,C  29,C  23,C  24)     76.2490         0.024078   
    364. D(H  55,C  30,C  24,C  23)     -8.7518         0.027607   
    365. D(H  55,C  30,C  24,C  18)    178.3798         0.027607   
    366. D(C  31,C  30,C  24,C  23)    172.5110         0.027607   
    367. D(C  31,C  30,C  24,C  18)     -0.3574         0.027607   
    368. D(H  56,C  31,C  30,H  55)     -0.7889         0.028818   
    369. D(H  56,C  31,C  30,C  24)    177.9340         0.028818   
    370. D(C  26,C  31,C  30,H  55)    177.5056         0.028818   
    371. D(C  26,C  31,C  30,C  24)     -3.7715         0.028818   
    372. D(H  56,C  31,C  26,H  52)      1.7584         0.026874   
    373. D(H  56,C  31,C  26,C  19)   -178.5991         0.026874   
    374. D(C  30,C  31,C  26,H  52)   -176.5362         0.026874   
    375. D(C  30,C  31,C  26,C  19)      3.1062         0.026874   
    376. D(H  57,C  32,C  25,H  50)      0.0604         0.028358   
    377. D(H  57,C  32,C  25,C  15)   -179.4301         0.028358   
    378. D(C  33,C  32,C  25,H  50)    179.9720         0.028358   
    379. D(C  33,C  32,C  25,C  15)      0.4814         0.028358   
    380. D(H  58,C  33,C  32,H  57)     -0.5072         0.027971   
    381. D(H  58,C  33,C  32,C  25)    179.5812         0.027971   
    382. D(C  27,C  33,C  32,H  57)    179.1945         0.027971   
    383. D(C  27,C  33,C  32,C  25)     -0.7170         0.027971   
    384. D(H  58,C  33,C  27,H  51)     -0.2912         0.029304   
    385. D(H  58,C  33,C  27,C  16)    179.6218         0.029304   
    386. D(C  32,C  33,C  27,H  51)   -179.9946         0.029304   
    387. D(C  32,C  33,C  27,C  16)     -0.0816         0.029304   
    388. D(N  60,Cu 34,C  29,H  54)     59.5645         0.004122   
    389. D(N  60,Cu 34,C  29,C  23)    -61.1964         0.004122   
    390. D(N  59,Cu 34,C  29,H  54)     13.0200         0.004122   
    391. D(N  59,Cu 34,C  29,C  28)    132.5026         0.004122   
    392. D(C  28,Cu 34,C  29,H  54)   -119.4826         0.004122   
    393. D(C  28,Cu 34,C  29,C  23)    119.7564         0.004122   
    394. D(C  23,Cu 34,C  29,H  54)    120.7610         0.004122   
    395. D(C  23,Cu 34,C  29,C  28)   -119.7564         0.004122   
    396. D(C  10,Cu 34,C  29,H  54)     44.4145         0.004122   
    397. D(C  10,Cu 34,C  29,C  28)    163.8971         0.004122   
    398. D(C  10,Cu 34,C  29,C  23)    -76.3465         0.004122   
    399. D(C   3,Cu 34,C  29,C  28)    152.9439         0.004122   
    400. D(C   3,Cu 34,C  29,C  23)    -87.2997         0.004122   
    401. D(N  60,Cu 34,C  28,H  53)    116.6839         0.001625   
    402. D(N  60,Cu 34,C  28,C  22)   -111.8587         0.001625   
    403. D(N  59,Cu 34,C  28,H  53)    -54.3272         0.001625   
    404. D(N  59,Cu 34,C  28,C  29)   -172.1512         0.001625   
    405. D(C  29,Cu 34,C  28,H  53)    117.8240         0.001625   
    406. D(C  29,Cu 34,C  28,C  22)   -110.7186         0.001625   
    407. D(C  23,Cu 34,C  28,H  53)    150.8638         0.001625   
    408. D(C  23,Cu 34,C  28,C  29)     33.0398         0.001625   
    409. D(C  23,Cu 34,C  28,C  22)    -77.6788         0.001625   
    410. D(C  10,Cu 34,C  28,H  53)     89.8280         0.001625   
    411. D(C  10,Cu 34,C  28,C  29)    -27.9960         0.001625   
    412. D(C   3,Cu 34,C  28,H  53)     17.8734         0.001625   
    413. D(C   3,Cu 34,C  28,C  29)    -99.9506         0.001625   
    414. D(C   3,Cu 34,C  28,C  22)    149.3308         0.001625   
    415. D(N  60,Cu 34,C  23,C  24)     -7.5385         0.001525   
    416. D(N  60,Cu 34,C  23,C  21)   -138.2006         0.001525   
    417. D(N  59,Cu 34,C  23,C  29)    169.4233         0.001525   
    418. D(N  59,Cu 34,C  23,C  21)    -82.5532         0.001525   
    419. D(C  29,Cu 34,C  23,C  24)   -121.3144         0.001525   
    420. D(C  29,Cu 34,C  23,C  21)    108.0235         0.001525   
    421. D(C  28,Cu 34,C  23,C  29)    -36.8622         0.001525   
    422. D(C  28,Cu 34,C  23,C  24)   -158.1766         0.001525   
    423. D(C  28,Cu 34,C  23,C  21)     71.1613         0.001525   
    424. D(C  10,Cu 34,C  23,C  29)    114.0786         0.001525   
    425. D(C  10,Cu 34,C  23,C  24)     -7.2358         0.001525   
    426. D(C  10,Cu 34,C  23,C  21)   -137.8979         0.001525   
    427. D(C   3,Cu 34,C  23,C  29)    127.5957         0.001525   
    428. D(C   3,Cu 34,C  23,C  24)      6.2813         0.001525   
    429. D(C   3,Cu 34,C  23,C  21)   -124.3808         0.001525   
    430. D(N  60,Cu 34,C  10,C   3)    161.0259         0.001520   
    431. D(N  59,Cu 34,C  23,C  24)     48.1088         0.001525   
    432. D(N  60,Cu 34,C  10,C   2)    -75.4957         0.001520   
    433. D(N  59,Cu 34,C  10,N  60)   -151.9188         0.001520   
    434. D(N  59,Cu 34,C  10,C   3)      9.1071         0.001520   
    435. D(N  60,Cu 34,C  23,C  29)    113.7759         0.001525   
    436. D(N  59,Cu 34,C  10,C   2)    132.5855         0.001520   
    437. D(C  29,Cu 34,C  10,N  60)     31.4368         0.001520   
    438. D(C  29,Cu 34,C  10,C   3)   -167.5373         0.001520   
    439. D(C  10,Cu 34,C  28,C  22)   -138.7145         0.001625   
    440. D(C  29,Cu 34,C  10,C   2)    -44.0589         0.001520   
    441. D(C  28,Cu 34,C  10,N  60)     48.8887         0.001520   
    442. D(C  28,Cu 34,C  10,C   3)   -150.0854         0.001520   
    443. D(C  28,Cu 34,C  10,C   2)    -26.6070         0.001520   
    444. D(C  23,Cu 34,C  10,N  60)     -0.5785         0.001520   
    445. D(C  23,Cu 34,C  10,C   3)    160.4474         0.001520   
    446. D(C  23,Cu 34,C  10,C   2)    -76.0743         0.001520   
    447. D(N  59,Cu 34,C  28,C  22)     77.1302         0.001625   
    448. D(C   3,Cu 34,C  10,N  60)   -161.0259         0.001520   
    449. D(C   3,Cu 34,C  10,C   2)    123.4784         0.001520   
    450. D(N  60,Cu 34,C   3,N  59)    153.4678         0.001529   
    451. D(N  60,Cu 34,C  28,C  29)     -1.1402         0.001625   
    452. D(N  60,Cu 34,C   3,C  10)    -10.7960         0.001529   
    453. D(N  60,Cu 34,C   3,C   5)   -145.4479         0.001529   
    454. D(N  59,Cu 34,C   3,C  10)   -164.2638         0.001529   
    455. D(C   3,Cu 34,C  29,H  54)     33.4613         0.004122   
    456. D(N  59,Cu 34,C   3,C   5)     61.0843         0.001529   
    457. D(C  29,Cu 34,C   3,N  59)   -176.1445         0.001529   
    458. D(C  29,Cu 34,C   3,C  10)     19.5918         0.001529   
    459. D(C  29,Cu 34,C   3,C   5)   -115.0602         0.001529   
    460. D(C  28,Cu 34,C   3,N  59)    -98.2435         0.001529   
    461. D(C  28,Cu 34,C   3,C  10)     97.4927         0.001529   
    462. D(C  28,Cu 34,C   3,C   5)    -37.1592         0.001529   
    463. D(N  59,Cu 34,C  29,C  23)   -107.7409         0.004122   
    464. D(C  23,Cu 34,C   3,N  59)    138.2218         0.001529   
    465. D(C  23,Cu 34,C   3,C  10)    -26.0420         0.001529   
    466. D(C  23,Cu 34,C   3,C   5)   -160.6939         0.001529   
    467. D(N  60,Cu 34,C  29,C  28)    179.0472         0.004122   
    468. D(C  10,Cu 34,C   3,N  59)    164.2638         0.001529   
    469. D(C  10,Cu 34,C   3,C   5)   -134.6519         0.001529   
    470. D(C   6,N  59,C   3,Cu 34)   -162.2029         0.027499   
    471. D(C   6,N  59,C   3,C  10)   -144.6791         0.027499   
    472. D(C   6,N  59,C   3,C   5)     41.6801         0.027499   
    473. D(C   6,N  59,Cu 34,N  60)    137.4617         0.006113   
    474. D(C   6,N  59,Cu 34,C  28)    -50.0373         0.006113   
    475. D(C   6,N  59,Cu 34,C  23)     85.2651         0.006113   
    476. D(C   6,N  59,Cu 34,C  10)    151.0977         0.006113   
    477. D(C   6,N  59,Cu 34,C   3)    160.3130         0.006113   
    478. D(C   3,N  59,Cu 34,N  60)    -22.8513         0.006113   
    479. D(C   3,N  59,Cu 34,C  29)     23.6619         0.006113   
    480. D(C   3,N  59,Cu 34,C  28)    149.6496         0.006113   
    481. D(C   3,N  59,Cu 34,C  23)    -75.0480         0.006113   
    482. D(C   3,N  59,Cu 34,C  10)     -9.2153         0.006113   
    483. D(Cu 34,N  59,C   6,C  11)   -129.1773         0.035006   
    484. D(Cu 34,N  59,C   6,C   0)     50.3770         0.035006   
    485. D(C   3,N  59,C   6,C  11)     28.2011         0.035006   
    486. D(C   3,N  59,C   6,C   0)   -152.2446         0.035006   
    487. D(C   6,N  59,Cu 34,C  29)   -176.0251         0.006113   
    488. D(Cu 34,N  59,C   3,C  10)     17.5237         0.027499   
    489. D(Cu 34,N  59,C   3,C   5)   -156.1170         0.027499   
    490. D(C  18,N  60,Cu 34,N  59)   -141.6617         0.003905   
    491. D(C  18,N  60,Cu 34,C  29)     42.4468         0.003905   
    492. D(C  18,N  60,Cu 34,C  28)     43.1138         0.003905   
    493. D(C  18,N  60,Cu 34,C  23)     13.3264         0.003905   
    494. D(C  18,N  60,Cu 34,C  10)   -166.0847         0.003905   
    495. D(C  10,N  60,Cu 34,N  59)     24.4230         0.003905   
    496. D(C  10,N  60,Cu 34,C  29)   -151.4686         0.003905   
    497. D(C  10,N  60,Cu 34,C  28)   -150.8015         0.003905   
    498. D(C  10,N  60,Cu 34,C  23)    179.4111         0.003905   
    499. D(C  10,N  60,Cu 34,C   3)     11.1853         0.003905   
    500. D(Cu 34,N  60,C  18,C  24)    -16.8122         0.037450   
    501. D(Cu 34,N  60,C  18,C  19)    157.2147         0.037450   
    502. D(C  10,N  60,C  18,C  24)   -179.5788         0.037450   
    503. D(C  18,N  60,Cu 34,C   3)   -154.8993         0.003905   
    504. D(C  10,N  60,C  18,C  19)     -5.5519         0.037450   
    505. D(Cu 34,N  60,C  10,C   3)    -20.1598         0.030032   
    506. D(Cu 34,N  60,C  10,C   2)    153.4833         0.030032   
    507. D(C  18,N  60,C  10,Cu 34)    165.7447         0.030032   
    508. D(C  18,N  60,C  10,C   3)    145.5849         0.030032   
    509. D(C  18,N  60,C  10,C   2)    -40.7720         0.030032   
    -----------------------------------------------------------------

Number of atoms                         .... 61
Number of degrees of freedom            .... 509

         *************************************************************
         *                GEOMETRY OPTIMIZATION CYCLE   1            *
         *************************************************************
---------------------------------
CARTESIAN COORDINATES (ANGSTROEM)
---------------------------------
  C     -3.025390    0.803031    0.002128
  C     -4.593521   -0.576595    1.269900
  C      1.825788   -2.210252   -1.999458
  C     -0.260303   -1.230964   -1.255930
  C     -3.644793   -1.565661    1.335675
  C     -0.934692   -2.285215   -1.861203
  C     -2.071481   -0.280483   -0.009632
  C      1.130279   -3.255773   -2.584054
  C     -2.744613    2.031153   -0.612399
  C     -4.288457    0.639214    0.631755
  C      1.162494   -1.202632   -1.303666
  C     -2.387181   -1.434241    0.744376
  C     -0.248880   -3.299423   -2.507046
  C     -3.652348    3.058449   -0.629061
  C     -5.205003    1.711426    0.600343
  C     -1.686445   -3.827313    0.867638
  C     -1.382890   -2.474923    1.003886
  C     -4.900601    2.892713   -0.018391
  C      2.926547   -0.023820   -0.095133
  C      3.720678   -1.141924    0.251751
  C      1.202747    4.153425    1.406435
  C      2.183001    3.169959    1.437208
  C      0.458262    4.364148    0.260046
  C      2.467508    2.395842    0.321610
  C      3.365905    1.245184    0.410458
  C     -0.739004   -4.796477    1.138178
  C      4.907160   -1.010589    0.929555
  C     -0.106920   -2.124810    1.447499
  C      0.735907    3.633497   -0.887320
  C      1.742941    2.648574   -0.879007
  C      4.563635    1.340977    1.103976
  C      5.362990    0.238320    1.337856
  C      0.527794   -4.434273    1.561533
  C      0.836854   -3.093088    1.722037
  Cu     0.324901    1.265200   -0.728057
  H     -1.764305    2.152493   -1.071929
  H     -5.563187   -0.706430    1.731818
  H      2.900031   -2.157657   -2.112876
  H     -2.016606   -2.292961   -1.836308
  H     -3.854004   -2.470460    1.894129
  H      1.672603   -4.030359   -3.112083
  H     -2.668864   -4.118003    0.520258
  H     -0.797322   -4.110976   -2.967738
  H     -3.409121    3.996683   -1.109490
  H      3.364590   -2.126391   -0.012025
  H     -6.163544    1.581118    1.087751
  H      1.008734    4.743240    2.291896
  H      2.722023    2.984568    2.356535
  H     -5.617239    3.704491   -0.032029
  H     -0.327064    5.107122    0.250717
  H     -0.987418   -5.842506    1.010148
  H      0.141577   -1.080142    1.575023
  H      5.492884   -1.894707    1.153827
  H      0.241596    3.883538   -1.816976
  H      2.172218    2.316255   -1.821600
  H      4.882676    2.316864    1.450790
  H      6.309190    0.340450    1.851897
  H      1.271689   -5.193099    1.764252
  H      1.821329   -2.799162    2.058795
  N     -0.935812   -0.142113   -0.721274
  N      1.761803   -0.092162   -0.751955

----------------------------
CARTESIAN COORDINATES (A.U.)
----------------------------
  NO LB      ZA    FRAG     MASS         X           Y           Z
   0 C     6.0000    0    12.011   -5.717158    1.517508    0.004021
   1 C     6.0000    0    12.011   -8.680496   -1.089606    2.399764
   2 C     6.0000    0    12.011    3.450240   -4.176770   -3.778428
   3 C     6.0000    0    12.011   -0.491902   -2.326185   -2.373364
   4 C     6.0000    0    12.011   -6.887661   -2.958671    2.524060
   5 C     6.0000    0    12.011   -1.766311   -4.318431   -3.517165
   6 C     6.0000    0    12.011   -3.914531   -0.530037   -0.018202
   7 C     6.0000    0    12.011    2.135917   -6.152520   -4.883154
   8 C     6.0000    0    12.011   -5.186567    3.838323   -1.157266
   9 C     6.0000    0    12.011   -8.104009    1.207940    1.193844
  10 C     6.0000    0    12.011    2.196795   -2.272645   -2.463571
  11 C     6.0000    0    12.011   -4.511117   -2.710323    1.406667
  12 C     6.0000    0    12.011   -0.470315   -6.235007   -4.737629
  13 C     6.0000    0    12.011   -6.901938    5.779630   -1.188754
  14 C     6.0000    0    12.011   -9.836031    3.234126    1.134484
  15 C     6.0000    0    12.011   -3.186918   -7.232574    1.639598
  16 C     6.0000    0    12.011   -2.613284   -4.676927    1.897070
  17 C     6.0000    0    12.011   -9.260793    5.466436   -0.034754
  18 C     6.0000    0    12.011    5.530372   -0.045013   -0.179776
  19 C     6.0000    0    12.011    7.031063   -2.157924    0.475741
  20 C     6.0000    0    12.011    2.272863    7.848836    2.657776
  21 C     6.0000    0    12.011    4.125274    5.990354    2.715930
  22 C     6.0000    0    12.011    0.865990    8.247044    0.491415
  23 C     6.0000    0    12.011    4.662915    4.527485    0.607755
  24 C     6.0000    0    12.011    6.360639    2.353056    0.775654
  25 C     6.0000    0    12.011   -1.396515   -9.064028    2.150844
  26 C     6.0000    0    12.011    9.273188   -1.909737    1.756605
  27 C     6.0000    0    12.011   -0.202049   -4.015310    2.735376
  28 C     6.0000    0    12.011    1.390662    6.866314   -1.676791
  29 C     6.0000    0    12.011    3.293680    5.005079   -1.661083
  30 C     6.0000    0    12.011    8.624020    2.534079    2.086212
  31 C     6.0000    0    12.011   10.134582    0.450360    2.528181
  32 C     6.0000    0    12.011    0.997385   -8.379562    2.950871
  33 C     6.0000    0    12.011    1.581425   -5.845090    3.254178
  34 Cu   29.0000    0    63.550    0.613975    2.390882   -1.375828
  35 H     1.0000    0     1.008   -3.334053    4.067623   -2.025652
  36 H     1.0000    0     1.008  -10.512900   -1.334959    3.272662
  37 H     1.0000    0     1.008    5.480264   -4.077380   -3.992758
  38 H     1.0000    0     1.008   -3.810832   -4.333069   -3.470120
  39 H     1.0000    0     1.008   -7.283012   -4.668493    3.579385
  40 H     1.0000    0     1.008    3.160761   -7.616275   -5.880985
  41 H     1.0000    0     1.008   -5.043421   -7.781897    0.983145
  42 H     1.0000    0     1.008   -1.506720   -7.768619   -5.608212
  43 H     1.0000    0     1.008   -6.442305    7.552636   -2.096632
  44 H     1.0000    0     1.008    6.358153   -4.018296   -0.022725
  45 H     1.0000    0     1.008  -11.647410    2.987880    2.055551
  46 H     1.0000    0     1.008    1.906230    8.963425    4.331055
  47 H     1.0000    0     1.008    5.143878    5.640016    4.453205
  48 H     1.0000    0     1.008  -10.615043    7.000473   -0.060526
  49 H     1.0000    0     1.008   -0.618062    9.651061    0.473786
  50 H     1.0000    0     1.008   -1.865950  -11.040736    1.908902
  51 H     1.0000    0     1.008    0.267541   -2.041172    2.976362
  52 H     1.0000    0     1.008   10.380047   -3.580478    2.180417
  53 H     1.0000    0     1.008    0.456551    7.338822   -3.433587
  54 H     1.0000    0     1.008    4.104897    4.377087   -3.442325
  55 H     1.0000    0     1.008    9.226921    4.378239    2.741595
  56 H     1.0000    0     1.008   11.922641    0.643357    3.499578
  57 H     1.0000    0     1.008    2.403144   -9.813535    3.333953
  58 H     1.0000    0     1.008    3.441814   -5.289649    3.890559
  59 N     7.0000    0    14.007   -1.768428   -0.268555   -1.363011
  60 N     7.0000    0    14.007    3.329326   -0.174161   -1.420989

--------------------------------
INTERNAL COORDINATES (ANGSTROEM)
--------------------------------
 C      0   0   0     0.000000000000     0.00000000     0.00000000
 C      1   0   0     2.443286369506     0.00000000     0.00000000
 C      1   2   0     6.051457849935   113.88914085     0.00000000
 C      3   1   2     2.421490233803     6.50850013    38.13032452
 C      2   1   3     1.372101691228    89.31976647    12.50681310
 C      4   3   1     1.390180252602    88.71287487   167.00827900
 C      1   2   3     1.443635486299    90.25859319   351.51074296
 C      3   1   2     1.385136199025    96.48382569    50.71592663
 C      1   2   3     1.401699848630   148.29694940   171.50937644
 C      2   1   3     1.406586383984    30.38123645   189.68096393
 C      3   1   2     1.392617206946    24.85640912   236.68882372
 C      5   2   1     1.395884784884   122.32878221   359.17974854
 C      8   3   1     1.381996396523   120.09371518   358.38980039
 C      9   1   2     1.370983989638   121.95301968   358.76606048
 C     10   2   1     1.410915167463   121.74098430   180.15941381
 C     12   5   2     2.496601143332    98.14710150   194.00515013
 C     16  12   5     1.392719482660    30.14356620   222.08908214
 C     15  10   2     1.367820368084   121.45362954   179.79543935
 C     11   3   1     2.441727049601   104.62543516   173.56969223
 C     19  11   3     1.414613577179    98.35792702   321.90997931
 C     19  11   3     4.761886625881   108.54487383   164.58885777
 C     21  19  11     1.388902531003    29.58123867   166.77101845
 C     21  19  11     1.383065383521    93.84989859   322.15120564
 C     22  21  19     1.387356842784   121.46763475    30.36544882
 C     19  11   3     1.434931572797   145.34129759   147.17300082
 C     16  12   5     1.382068892605   150.95476094   224.15941416
 C     20  19  11     1.372736618376   122.05046159   177.65509505
 C     17  16  12     1.395518543994   118.29448432   177.49997076
 C     23  21  19     1.388302538491   119.81421815   343.04562001
 C     29  23  21     1.408637609238   120.40298679     2.03474645
 C     25  19  11     1.387335198625   120.10192873   179.14446979
 C     31  25  19     1.381853628662   121.93232494   359.64255341
 C     26  16  12     1.383906565293   120.25589046   359.34688348
 C     28  17  16     1.379725259979   120.83831348     1.09294802
 Cu    30  29  23     1.986791960576    88.68469512   101.54261779
 H      9   1   2     1.089447371136   117.56497624   177.95735331
 H      2   1   3     1.081886758421   149.83046090   191.76523110
 H      3   1   2     1.081492820120   143.77979294   223.37978384
 H      6   4   3     1.082228136674   118.71023332   182.18744388
 H      5   2   1     1.083651476635   119.54336759   176.87702191
 H      8   3   1     1.083011399713   119.61612504   177.58670444
 H     16  12   5     1.081813411282    89.24489218    44.53432651
 H     13   8   3     1.082424918993   120.37140466   179.60456215
 H     14   9   1     1.081783090975   120.42513098   179.91817104
 H     20  19  11     1.079606920707   118.40293565   356.43164824
 H     15  10   2     1.083211481911   118.25577128     0.20822039
 H     21  19  11     1.081464058911   143.27823757   120.06608830
 H     22  21  19     1.081700521188   119.46447442   211.86525241
 H     18  15  10     1.082930412041   120.38517461   180.00250921
 H     23  21  19     1.081126808079   120.18978485   164.07554538
 H     26  16  12     1.082717917064   119.80490204   179.85565537
 H     28  17  16     1.081362732720   119.33871921   181.00644058
 H     27  20  19     1.083990641851   119.41619424   181.38834816
 H     29  23  21     1.082185041913   119.80293029   187.74834317
 H     30  29  23     1.087747946192   119.38224715   199.69458561
 H     31  25  19     1.083708655927   118.44527588   178.37980575
 H     32  31  25     1.081648424865   120.73842890   177.93397312
 H     33  26  16     1.081800141868   120.21152218   180.56985511
 H     34  28  17     1.081198700035   119.60580146   179.62183365
 N      7   1   2     1.347339882034   118.95892043   174.44553492
 N     19  11   3     1.338922017435    26.37291397   146.52501446

---------------------------
INTERNAL COORDINATES (A.U.)
---------------------------
 C      0   0   0     0.000000000000     0.00000000     0.00000000
 C      1   0   0     4.617142105110     0.00000000     0.00000000
 C      1   2   0    11.435598047345   113.88914085     0.00000000
 C      3   1   2     4.575953377852     6.50850013    38.13032452
 C      2   1   3     2.592896424311    89.31976647    12.50681310
 C      4   3   1     2.627059954204    88.71287487   167.00827900
 C      1   2   3     2.728075706315    90.25859319   351.51074296
 C      3   1   2     2.617528074337    96.48382569    50.71592663
 C      1   2   3     2.648828835870   148.29694940   171.50937644
 C      2   1   3     2.658063049433    30.38123645   189.68096393
 C      3   1   2     2.631665130515    24.85640912   236.68882372
 C      5   2   1     2.637839957938   122.32878221   359.17974854
 C      8   3   1     2.611594707495   120.09371518   358.38980039
 C      9   1   2     2.590784274406   121.95301968   358.76606048
 C     10   2   1     2.666243264701   121.74098430   180.15941381
 C     12   5   2     4.717892426533    98.14710150   194.00515013
 C     16  12   5     2.631858403603    30.14356620   222.08908214
 C     15  10   2     2.584805896079   121.45362954   179.79543935
 C     11   3   1     4.614195417534   104.62543516   173.56969223
 C     19  11   3     2.673232246195    98.35792702   321.90997931
 C     19  11   3     8.998661603697   108.54487383   164.58885777
 C     21  19  11     2.624645410305    29.58123867   166.77101845
 C     21  19  11     2.613614800161    93.84989859   322.15120564
 C     22  21  19     2.621724482884   121.46763475    30.36544882
 C     19  11   3     2.711627693503   145.34129759   147.17300082
 C     16  12   5     2.611731705234   150.95476094   224.15941416
 C     20  19  11     2.594096262735   122.05046159   177.65509505
 C     17  16  12     2.637147862957   118.29448432   177.49997076
 C     23  21  19     2.623511588775   119.81421815   343.04562001
 C     29  23  21     2.661939303401   120.40298679     2.03474645
 C     25  19  11     2.621683581351   120.10192873   179.14446979
 C     31  25  19     2.611324915336   121.93232494   359.64255341
 C     26  16  12     2.615204403340   120.25589046   359.34688348
 C     28  17  16     2.607302881413   120.83831348     1.09294802
 Cu    30  29  23     3.754492690565    88.68469512   101.54261779
 H      9   1   2     2.058757168767   117.56497624   177.95735331
 H      2   1   3     2.044469681332   149.83046090   191.76523110
 H      3   1   2     2.043725245829   143.77979294   223.37978384
 H      6   4   3     2.045114792739   118.71023332   182.18744388
 H      5   2   1     2.047804515459   119.54336759   176.87702191
 H      8   3   1     2.046594945372   119.61612504   177.58670444
 H     16  12   5     2.044331075326    89.24489218    44.53432651
 H     13   8   3     2.045486657429   120.37140466   179.60456215
 H     14   9   1     2.044273778250   120.42513098   179.91817104
 H     20  19  11     2.040161412421   118.40293565   356.43164824
 H     15  10   2     2.046973045931   118.25577128     0.20822039
 H     21  19  11     2.043670895021   143.27823757   120.06608830
 H     22  21  19     2.044117743965   119.46447442   211.86525241
 H     18  15  10     2.046441900853   120.38517461   180.00250921
 H     23  21  19     2.043033583310   120.18978485   164.07554538
 H     26  16  12     2.046040343540   119.80490204   179.85565537
 H     28  17  16     2.043479416270   119.33871921   181.00644058
 H     27  20  19     2.048445444833   119.41619424   181.38834816
 H     29  23  21     2.045033355441   119.80293029   187.74834317
 H     30  29  23     2.055545721038   119.38224715   199.69458561
 H     31  25  19     2.047912568661   118.44527588   178.37980575
 H     32  31  25     2.044019296181   120.73842890   177.93397312
 H     33  26  16     2.044305999767   120.21152218   180.56985511
 H     34  28  17     2.043169439418   119.60580146   179.62183365
 N      7   1   2     2.546103386354   118.95892043   174.44553492
 N     19  11   3     2.530195927630    26.37291397   146.52501446

---------------------
BASIS SET INFORMATION
---------------------
There are 5 groups of distinct atoms

 Group   1 Type C   : 7s4p1d contracted to 3s2p1d pattern {511/31/1}
 Group   2 Type C   : 11s6p2d1f contracted to 5s3p2d1f pattern {62111/411/11/1}
 Group   3 Type Cu  : 17s11p7d1f contracted to 6s4p4d1f pattern {842111/6311/4111/1}
 Group   4 Type H   : 3s contracted to 1s pattern {3}
 Group   5 Type N   : 7s4p1d contracted to 3s2p1d pattern {511/31/1}

Atom   0C    basis set group =>   1
Atom   1C    basis set group =>   1
Atom   2C    basis set group =>   1
Atom   3C    basis set group =>   1
Atom   4C    basis set group =>   1
Atom   5C    basis set group =>   1
Atom   6C    basis set group =>   1
Atom   7C    basis set group =>   1
Atom   8C    basis set group =>   1
Atom   9C    basis set group =>   1
Atom  10C    basis set group =>   1
Atom  11C    basis set group =>   1
Atom  12C    basis set group =>   1
Atom  13C    basis set group =>   1
Atom  14C    basis set group =>   1
Atom  15C    basis set group =>   1
Atom  16C    basis set group =>   1
Atom  17C    basis set group =>   1
Atom  18C    basis set group =>   1
Atom  19C    basis set group =>   1
Atom  20C    basis set group =>   1
Atom  21C    basis set group =>   2
Atom  22C    basis set group =>   1
Atom  23C    basis set group =>   1
Atom  24C    basis set group =>   1
Atom  25C    basis set group =>   1
Atom  26C    basis set group =>   1
Atom  27C    basis set group =>   1
Atom  28C    basis set group =>   1
Atom  29C    basis set group =>   1
Atom  30C    basis set group =>   1
Atom  31C    basis set group =>   1
Atom  32C    basis set group =>   1
Atom  33C    basis set group =>   1
Atom  34Cu   basis set group =>   3
Atom  35H    basis set group =>   4
Atom  36H    basis set group =>   4
Atom  37H    basis set group =>   4
Atom  38H    basis set group =>   4
Atom  39H    basis set group =>   4
Atom  40H    basis set group =>   4
Atom  41H    basis set group =>   4
Atom  42H    basis set group =>   4
Atom  43H    basis set group =>   4
Atom  44H    basis set group =>   4
Atom  45H    basis set group =>   4
Atom  46H    basis set group =>   4
Atom  47H    basis set group =>   4
Atom  48H    basis set group =>   4
Atom  49H    basis set group =>   4
Atom  50H    basis set group =>   4
Atom  51H    basis set group =>   4
Atom  52H    basis set group =>   4
Atom  53H    basis set group =>   4
Atom  54H    basis set group =>   4
Atom  55H    basis set group =>   4
Atom  56H    basis set group =>   4
Atom  57H    basis set group =>   4
Atom  58H    basis set group =>   4
Atom  59N    basis set group =>   5
Atom  60N    basis set group =>   5
---------------------------------
AUXILIARY/J BASIS SET INFORMATION
---------------------------------
There are 4 groups of distinct atoms

 Group   1 Type C   : 8s3p3d contracted to 6s3p3d pattern {311111/111/111}
 Group   2 Type Cu  : 19s5p5d3f3g contracted to 8s5p4d3f3g pattern {121111111/11111/2111/111/111}
 Group   3 Type H   : 5s2p contracted to 3s1p pattern {311/2}
 Group   4 Type N   : 8s3p3d contracted to 6s3p3d pattern {311111/111/111}

Atom   0C    basis set group =>   1
Atom   1C    basis set group =>   1
Atom   2C    basis set group =>   1
Atom   3C    basis set group =>   1
Atom   4C    basis set group =>   1
Atom   5C    basis set group =>   1
Atom   6C    basis set group =>   1
Atom   7C    basis set group =>   1
Atom   8C    basis set group =>   1
Atom   9C    basis set group =>   1
Atom  10C    basis set group =>   1
Atom  11C    basis set group =>   1
Atom  12C    basis set group =>   1
Atom  13C    basis set group =>   1
Atom  14C    basis set group =>   1
Atom  15C    basis set group =>   1
Atom  16C    basis set group =>   1
Atom  17C    basis set group =>   1
Atom  18C    basis set group =>   1
Atom  19C    basis set group =>   1
Atom  20C    basis set group =>   1
Atom  21C    basis set group =>   1
Atom  22C    basis set group =>   1
Atom  23C    basis set group =>   1
Atom  24C    basis set group =>   1
Atom  25C    basis set group =>   1
Atom  26C    basis set group =>   1
Atom  27C    basis set group =>   1
Atom  28C    basis set group =>   1
Atom  29C    basis set group =>   1
Atom  30C    basis set group =>   1
Atom  31C    basis set group =>   1
Atom  32C    basis set group =>   1
Atom  33C    basis set group =>   1
Atom  34Cu   basis set group =>   2
Atom  35H    basis set group =>   3
Atom  36H    basis set group =>   3
Atom  37H    basis set group =>   3
Atom  38H    basis set group =>   3
Atom  39H    basis set group =>   3
Atom  40H    basis set group =>   3
Atom  41H    basis set group =>   3
Atom  42H    basis set group =>   3
Atom  43H    basis set group =>   3
Atom  44H    basis set group =>   3
Atom  45H    basis set group =>   3
Atom  46H    basis set group =>   3
Atom  47H    basis set group =>   3
Atom  48H    basis set group =>   3
Atom  49H    basis set group =>   3
Atom  50H    basis set group =>   3
Atom  51H    basis set group =>   3
Atom  52H    basis set group =>   3
Atom  53H    basis set group =>   3
Atom  54H    basis set group =>   3
Atom  55H    basis set group =>   3
Atom  56H    basis set group =>   3
Atom  57H    basis set group =>   3
Atom  58H    basis set group =>   3
Atom  59N    basis set group =>   4
Atom  60N    basis set group =>   4


           ************************************************************
           *        Program running with 48 parallel MPI-processes    *
           *              working on a common directory               *
           ************************************************************
------------------------------------------------------------------------------
                           ORCA GTO INTEGRAL CALCULATION
                           -- RI-GTO INTEGRALS CHOSEN --
------------------------------------------------------------------------------
------------------------------------------------------------------------------
                   ___                                                        
                  /   \      - P O W E R E D   B Y -                         
                 /     \                                                     
                 |  |  |   _    _      __       _____    __    __             
                 |  |  |  | |  | |    /  \     |  _  \  |  |  /  |          
                  \  \/   | |  | |   /    \    | | | |  |  | /  /          
                 / \  \   | |__| |  /  /\  \   | |_| |  |  |/  /          
                |  |  |   |  __  | /  /__\  \  |    /   |      \           
                |  |  |   | |  | | |   __   |  |    \   |  |\   \          
                \     /   | |  | | |  |  |  |  | |\  \  |  | \   \       
                 \___/    |_|  |_| |__|  |__|  |_| \__\ |__|  \__/        
                                                                              
                      - O R C A' S   B I G   F R I E N D -                    
                                      &                                       
                       - I N T E G R A L  F E E D E R -                       
                                                                              
 v1 FN, 2020, v2 2021                                                         
------------------------------------------------------------------------------


Reading SHARK input file JHVUUIQHEXNRLG-UHFFFAOYSA-N-OPT.SHARKINP.tmp ... ok
----------------------
SHARK INTEGRAL PACKAGE
----------------------

Number of atoms                             ...     61
Number of basis functions                   ...    590
Number of shells                            ...    260
Maximum angular momentum                    ...      3
Integral batch strategy                     ... SHARK/LIBINT Hybrid
RI-J (if used) integral strategy            ... SPLIT-RIJ (Revised 2003 algorithm where possible)
Printlevel                                  ...      1
Contraction scheme used                     ... SEGMENTED contraction
Coulomb Range Separation                    ... NOT USED
Exchange Range Separation                   ... NOT USED
Finite Nucleus Model                        ... NOT USED
Auxiliary Coulomb fitting basis             ... AVAILABLE
   # of basis functions in Aux-J            ...   1315
   # of shells in Aux-J                     ...    551
   Maximum angular momentum in Aux-J        ...      4
Auxiliary J/K fitting basis                 ... NOT available
Auxiliary Correlation fitting basis         ... NOT available
Auxiliary 'external' fitting basis          ... NOT available
Integral threshold                          ...     2.500000e-11
Primitive cut-off                           ...     2.500000e-12
Primitive pair pre-selection threshold      ...     2.500000e-12

Calculating pre-screening integrals         ... done (  0.2 sec) Dimension = 260
Organizing shell pair data                  ... done (  0.1 sec)
Shell pair information
Total number of shell pairs                 ...     33930
Shell pairs after pre-screening             ...     24543
Total number of primitive shell pairs       ...    151034
Primitive shell pairs kept                  ...     62673
          la=0 lb=0:   6993 shell pairs
          la=1 lb=0:   8358 shell pairs
          la=1 lb=1:   2549 shell pairs
          la=2 lb=0:   3562 shell pairs
          la=2 lb=1:   2302 shell pairs
          la=2 lb=2:    445 shell pairs
          la=3 lb=0:    175 shell pairs
          la=3 lb=1:    117 shell pairs
          la=3 lb=2:     39 shell pairs
          la=3 lb=3:      3 shell pairs

Calculating one electron integrals          ... done (  0.0 sec)
Calculating RI/J V-Matrix + Cholesky decomp.... done (  0.5 sec)
Calculating Nuclear repulsion               ... done (  0.0 sec) ENN=   4621.050365092098 Eh

SHARK setup successfully completed in   1.0 seconds

Maximum memory used throughout the entire GTOINT-calculation: 41.7 MB


           ************************************************************
           *        Program running with 48 parallel MPI-processes    *
           *              working on a common directory               *
           ************************************************************
-------------------------------------------------------------------------------
                                 ORCA SCF
-------------------------------------------------------------------------------

------------
SCF SETTINGS
------------
Hamiltonian:
 Density Functional     Method          .... DFT(GTOs)
 Exchange Functional    Exchange        .... B973C
 Correlation Functional Correlation     .... B973C
 Gradients option       PostSCFGGA      .... off
   Density functional embedding theory  .... OFF
 RI-approximation to the Coulomb term is turned on
   Number of AuxJ basis functions       .... 1315


General Settings:
 Integral files         IntName         .... JHVUUIQHEXNRLG-UHFFFAOYSA-N-OPT
 Hartree-Fock type      HFTyp           .... RHF
 Total Charge           Charge          ....   -1
 Multiplicity           Mult            ....    1
 Number of Electrons    NEL             ....  272
 Basis Dimension        Dim             ....  590
 Nuclear Repulsion      ENuc            ....   4621.0503650921 Eh

Convergence Acceleration:
 DIIS                   CNVDIIS         .... on
   Start iteration      DIISMaxIt       ....    12
   Startup error        DIISStart       ....  0.200000
   # of expansion vecs  DIISMaxEq       ....     5
   Bias factor          DIISBfac        ....   1.050
   Max. coefficient     DIISMaxC        ....  10.000
 Trust-Rad. Augm. Hess. CNVTRAH         .... auto
   Auto Start mean grad. ratio tolernc. ....  1.125000
   Auto Start start iteration           ....    20
   Auto Start num. interpolation iter.  ....    10
   Max. Number of Micro iterations      ....    16
   Max. Number of Macro iterations      .... Maxiter - #DIIS iter
   Number of Davidson start vectors     ....     2
   Converg. threshold I  (grad. norm)   ....   1.000e-05
   Converg. threshold II (energy diff.) ....   1.000e-08
   Grad. Scal. Fac. for Micro threshold ....   0.100
   Minimum threshold for Micro iter.    ....   0.010
   NR start threshold (gradient norm)   ....   0.001
   Initial trust radius                 ....   0.400
   Minimum AH scaling param. (alpha)    ....   1.000
   Maximum AH scaling param. (alpha)    .... 1000.000
   Orbital update algorithm             .... Taylor
   White noise on init. David. guess    .... on
   Maximum white noise                  ....   0.010
   Quad. conv. algorithm                .... NR
[...]
103:   1058.45   0.003152   15.93  0.000929  ( 0.010121 -0.024629  0.014845)
104:   1065.50   0.006389   32.29  0.001871  ( 0.030429 -0.024627 -0.018403)
105:   1071.36   0.001053    5.32  0.000307  ( 0.013762  0.009991 -0.004170)
106:   1086.31   0.003472   17.55  0.000997  ( 0.017743  0.025870  0.003645)
107:   1108.93   0.000964    4.87  0.000271  ( 0.010239 -0.012594  0.002821)
108:   1117.57   0.005054   25.54  0.001411  (-0.035350 -0.011861  0.004573)
109:   1124.56   0.013090   66.15  0.003632  ( 0.058248  0.010250 -0.011603)
110:   1149.77   0.003344   16.90  0.000908  ( 0.028220  0.009955  0.003498)
111:   1152.42   0.000963    4.87  0.000261  ( 0.006719  0.013830  0.004939)
112:   1153.07   0.000978    4.94  0.000265  (-0.005614  0.013519  0.007105)
113:   1156.19   0.000593    3.00  0.000160  ( 0.009145 -0.000664 -0.008722)
114:   1159.48   0.000099    0.50  0.000027  (-0.003210 -0.004008 -0.000382)
115:   1163.09   0.000065    0.33  0.000017  ( 0.000534 -0.003535  0.002160)
116:   1164.91   0.002087   10.55  0.000559  ( 0.008843  0.017992  0.012534)
117:   1180.54   0.000083    0.42  0.000022  ( 0.004565 -0.000561  0.000811)
118:   1204.05   0.001604    8.11  0.000416  ( 0.017398 -0.007781 -0.007247)
119:   1219.80   0.042953  217.07  0.010989  (-0.018501 -0.087974 -0.053916)
120:   1236.54   0.006350   32.09  0.001603  ( 0.036049  0.016668 -0.005025)
121:   1241.78   0.006397   32.33  0.001608  (-0.038765  0.003684 -0.009556)
122:   1261.45   0.029400  148.58  0.007273  (-0.051027  0.067828  0.008288)
123:   1287.10   0.010731   54.23  0.002602  (-0.040942 -0.022305  0.020687)
124:   1290.12   0.002868   14.50  0.000694  (-0.003999  0.003546  0.025793)
125:   1303.04   0.025042  126.55  0.005997  (-0.053385 -0.041935 -0.037266)
126:   1307.61   0.008203   41.46  0.001958  (-0.040959  0.016701  0.001075)
127:   1312.65   0.005976   30.20  0.001421  ( 0.018211  0.030679  0.012157)
128:   1331.90   0.020198  102.07  0.004732  ( 0.066546 -0.009867  0.014379)
129:   1333.08   0.010988   55.53  0.002572  (-0.027552  0.018863  0.038174)
130:   1346.26   0.045678  230.84  0.010588  (-0.008072 -0.075506 -0.069439)
131:   1367.66   0.001038    5.25  0.000237  (-0.014792 -0.004192 -0.000725)
132:   1367.81   0.002603   13.15  0.000594  (-0.018228 -0.008025  0.014044)
133:   1372.42   0.002220   11.22  0.000505  (-0.008536 -0.020744  0.001224)
134:   1385.59   0.184989  934.86  0.041663  (-0.202426 -0.016646 -0.020251)
135:   1392.90   0.042405  214.30  0.009500  (-0.069314  0.057503  0.037273)
136:   1426.42   0.187058  945.31  0.040923  ( 0.199869  0.013219 -0.028303)
137:   1431.61   0.040263  203.47  0.008776  (-0.056669  0.037587  0.064438)
138:   1439.61   0.007282   36.80  0.001578  (-0.036019 -0.003376  0.016422)
139:   1459.78   0.068204  344.68  0.014580  (-0.120402 -0.002406 -0.008821)
140:   1467.49   0.010378   52.44  0.002207  (-0.041488 -0.002290 -0.021915)
141:   1468.85   0.008063   40.74  0.001713  ( 0.012517  0.032589  0.022231)
142:   1475.14   0.015166   76.64  0.003208  (-0.048017 -0.020926  0.021558)
143:   1486.85   0.058060  293.41  0.012186  (-0.106855 -0.009113 -0.026167)
144:   1497.52   0.043366  219.16  0.009037  ( 0.033729  0.073733  0.049626)
145:   1508.62   0.142487  720.07  0.029474  (-0.044295 -0.124417 -0.109692)
146:   1517.57   0.011851   59.89  0.002437  ( 0.008102  0.042018 -0.024613)
147:   1537.98   0.020110  101.63  0.004080  ( 0.059295  0.000140 -0.023757)
148:   1566.23   0.017317   87.51  0.003450  ( 0.055886  0.001550  0.018017)
149:   1572.50   0.026451  133.67  0.005249  ( 0.052059  0.025962 -0.043186)
150:   1574.45   0.001332    6.73  0.000264  (-0.003884  0.010211  0.012026)
151:   1581.17   0.001237    6.25  0.000244  ( 0.014822  0.002868  0.004017)
152:   1590.28   0.000202    1.02  0.000040  (-0.002162 -0.000009 -0.005920)
153:   1596.92   0.056284  284.43  0.010999  (-0.103691 -0.000282 -0.015712)
154:   1610.16   0.002368   11.97  0.000459  (-0.013340 -0.010643  0.012950)
155:   1615.59   0.011959   60.43  0.002310  (-0.037515  0.029565  0.005334)
156:   1627.51   0.035841  181.13  0.006872  ( 0.071948  0.013593  0.038871)
157:   1636.58   0.008105   40.96  0.001545  ( 0.016478 -0.032433  0.014899)
158:   1643.87   0.000119    0.60  0.000023  ( 0.002321 -0.004033 -0.000990)
159:   3071.04   0.000888    4.49  0.000090  ( 0.006650 -0.002531  0.006296)
160:   3107.28   0.001038    5.25  0.000104  ( 0.001695 -0.005233 -0.008602)
161:   3114.92   0.003834   19.38  0.000384  (-0.018374 -0.002456 -0.006364)
162:   3116.76   0.003628   18.33  0.000363  ( 0.004969 -0.017745 -0.004860)
163:   3119.20   0.000660    3.34  0.000066  (-0.007623  0.002215  0.001749)
164:   3120.94   0.002147   10.85  0.000215  ( 0.006175  0.008293 -0.010379)
165:   3121.68   0.000528    2.67  0.000053  ( 0.006613 -0.002932 -0.000664)
166:   3122.98   0.000605    3.06  0.000060  (-0.006946  0.003281 -0.001196)
167:   3126.37   0.000059    0.30  0.000006  ( 0.000579  0.001074 -0.002091)
168:   3126.72   0.000370    1.87  0.000037  ( 0.005758 -0.001701 -0.000937)
169:   3126.98   0.002632   13.30  0.000263  (-0.009963  0.010618  0.007115)
170:   3131.71   0.000468    2.37  0.000047  (-0.004250 -0.004864 -0.002225)
171:   3133.33   0.002150   10.86  0.000214  (-0.014354  0.001451 -0.002442)
172:   3133.85   0.004506   22.77  0.000449  (-0.018058  0.001661  0.010947)
173:   3136.37   0.005984   30.24  0.000595  (-0.013225 -0.017157 -0.011231)
174:   3138.35   0.003360   16.98  0.000334  ( 0.006309  0.016019  0.006142)
175:   3138.81   0.005050   25.52  0.000502  ( 0.015973  0.011903 -0.010257)
176:   3139.51   0.001072    5.42  0.000107  (-0.001238 -0.000175 -0.010246)
177:   3142.98   0.005947   30.05  0.000590  ( 0.013100 -0.017951  0.009831)
178:   3144.63   0.002190   11.07  0.000217  ( 0.007231 -0.010380  0.007568)
179:   3145.94   0.003123   15.78  0.000310  (-0.017212  0.001245 -0.003471)
180:   3149.15   0.002736   13.83  0.000271  ( 0.009509 -0.010733 -0.008094)
181:   3154.42   0.002271   11.48  0.000225  (-0.013586  0.000560  0.006307)
182:   3181.25   0.002178   11.01  0.000214  ( 0.007024 -0.011408 -0.005847)

* The epsilon (eps) is given for a Dirac delta lineshape.
** The dipole moment derivative (T) already includes vibrational overlap.

The first frequency considered to be a vibration is 6
The total number of vibrations considered is 177


--------------------------
THERMOCHEMISTRY AT 298.15K
--------------------------

Temperature         ... 298.15 K
Pressure            ... 1.00 atm
Total Mass          ... 524.13 AMU

Throughout the following assumptions are being made:
  (1) The electronic state is orbitally nondegenerate
  (2) There are no thermally accessible electronically excited states
  (3) Hindered rotations indicated by low frequency modes are not
      treated as such but are treated as vibrations and this may
      cause some error
  (4) All equations used are the standard statistical mechanics
      equations for an ideal gas
  (5) All vibrations are strictly harmonic

freq.      14.72  E(vib)   ...       0.57 
freq.      15.74  E(vib)   ...       0.57 
freq.      26.94  E(vib)   ...       0.55 
freq.      41.20  E(vib)   ...       0.54 
freq.      47.53  E(vib)   ...       0.53 
freq.      62.60  E(vib)   ...       0.51 
freq.      69.37  E(vib)   ...       0.50 
freq.      74.83  E(vib)   ...       0.49 
freq.      80.00  E(vib)   ...       0.49 
freq.      90.55  E(vib)   ...       0.47 
freq.     115.57  E(vib)   ...       0.44 
freq.     122.72  E(vib)   ...       0.43 
freq.     131.48  E(vib)   ...       0.42 
freq.     145.45  E(vib)   ...       0.41 
freq.     156.54  E(vib)   ...       0.40 
freq.     177.48  E(vib)   ...       0.37 
freq.     181.27  E(vib)   ...       0.37 
freq.     203.70  E(vib)   ...       0.35 
freq.     227.18  E(vib)   ...       0.33 
freq.     239.22  E(vib)   ...       0.31 
freq.     260.38  E(vib)   ...       0.30 
freq.     267.01  E(vib)   ...       0.29 
freq.     283.27  E(vib)   ...       0.28 
freq.     289.94  E(vib)   ...       0.27 
freq.     307.76  E(vib)   ...       0.26 
freq.     324.50  E(vib)   ...       0.24 
freq.     328.92  E(vib)   ...       0.24 
freq.     361.45  E(vib)   ...       0.22 
freq.     384.93  E(vib)   ...       0.20 
freq.     392.56  E(vib)   ...       0.20 
freq.     406.62  E(vib)   ...       0.19 
freq.     424.32  E(vib)   ...       0.18 
freq.     431.74  E(vib)   ...       0.18 
freq.     458.55  E(vib)   ...       0.16 
freq.     481.81  E(vib)   ...       0.15 
freq.     487.30  E(vib)   ...       0.15 
freq.     502.38  E(vib)   ...       0.14 
freq.     527.85  E(vib)   ...       0.13 
freq.     531.05  E(vib)   ...       0.13 
freq.     542.03  E(vib)   ...       0.12 
freq.     549.76  E(vib)   ...       0.12 
freq.     558.76  E(vib)   ...       0.12 
freq.     568.63  E(vib)   ...       0.11 
freq.     569.96  E(vib)   ...       0.11 
freq.     591.14  E(vib)   ...       0.10 
freq.     601.05  E(vib)   ...       0.10 
freq.     606.50  E(vib)   ...       0.10 
freq.     615.20  E(vib)   ...       0.10 
freq.     624.71  E(vib)   ...       0.09 
freq.     628.52  E(vib)   ...       0.09 
freq.     652.36  E(vib)   ...       0.08 
freq.     665.40  E(vib)   ...       0.08 
freq.     691.51  E(vib)   ...       0.07 
freq.     695.37  E(vib)   ...       0.07 
freq.     701.13  E(vib)   ...       0.07 
freq.     708.27  E(vib)   ...       0.07 
freq.     713.20  E(vib)   ...       0.07 
freq.     720.16  E(vib)   ...       0.07 
freq.     732.84  E(vib)   ...       0.06 
freq.     733.49  E(vib)   ...       0.06 
freq.     737.01  E(vib)   ...       0.06 
freq.     749.58  E(vib)   ...       0.06 
freq.     762.43  E(vib)   ...       0.06 
freq.     764.23  E(vib)   ...       0.06 
freq.     785.13  E(vib)   ...       0.05 
freq.     796.14  E(vib)   ...       0.05 
freq.     805.42  E(vib)   ...       0.05 
freq.     819.29  E(vib)   ...       0.05 
freq.     828.63  E(vib)   ...       0.04 
freq.     829.24  E(vib)   ...       0.04 
freq.     833.98  E(vib)   ...       0.04 
freq.     837.00  E(vib)   ...       0.04 
freq.     844.89  E(vib)   ...       0.04 
freq.     871.68  E(vib)   ...       0.04 
freq.     888.45  E(vib)   ...       0.04 
freq.     897.07  E(vib)   ...       0.03 
freq.     899.98  E(vib)   ...       0.03 
freq.     903.99  E(vib)   ...       0.03 
freq.     911.50  E(vib)   ...       0.03 
freq.     918.52  E(vib)   ...       0.03 
freq.     920.48  E(vib)   ...       0.03 
freq.     929.98  E(vib)   ...       0.03 
freq.     931.21  E(vib)   ...       0.03 
freq.     941.34  E(vib)   ...       0.03 
freq.     953.68  E(vib)   ...       0.03 
freq.     955.20  E(vib)   ...       0.03 
freq.     963.11  E(vib)   ...       0.03 
freq.     965.86  E(vib)   ...       0.03 
freq.     978.56  E(vib)   ...       0.03 
freq.     981.61  E(vib)   ...       0.02 
freq.     981.97  E(vib)   ...       0.02 
freq.    1005.81  E(vib)   ...       0.02 
freq.    1009.09  E(vib)   ...       0.02 
freq.    1027.09  E(vib)   ...       0.02 
freq.    1033.32  E(vib)   ...       0.02 
freq.    1039.46  E(vib)   ...       0.02 
freq.    1047.61  E(vib)   ...       0.02 
freq.    1058.45  E(vib)   ...       0.02 
freq.    1065.50  E(vib)   ...       0.02 
freq.    1071.36  E(vib)   ...       0.02 
freq.    1086.31  E(vib)   ...       0.02 
freq.    1108.93  E(vib)   ...       0.02 
freq.    1117.57  E(vib)   ...       0.01 
freq.    1124.56  E(vib)   ...       0.01 
freq.    1149.77  E(vib)   ...       0.01 
freq.    1152.42  E(vib)   ...       0.01 
freq.    1153.07  E(vib)   ...       0.01 
freq.    1156.19  E(vib)   ...       0.01 
freq.    1159.48  E(vib)   ...       0.01 
freq.    1163.09  E(vib)   ...       0.01 
freq.    1164.91  E(vib)   ...       0.01 
freq.    1180.54  E(vib)   ...       0.01 
freq.    1204.05  E(vib)   ...       0.01 
freq.    1219.80  E(vib)   ...       0.01 
freq.    1236.54  E(vib)   ...       0.01 
freq.    1241.78  E(vib)   ...       0.01 
freq.    1261.45  E(vib)   ...       0.01 
freq.    1287.10  E(vib)   ...       0.01 
freq.    1290.12  E(vib)   ...       0.01 
freq.    1303.04  E(vib)   ...       0.01 
freq.    1307.61  E(vib)   ...       0.01 
freq.    1312.65  E(vib)   ...       0.01 
freq.    1331.90  E(vib)   ...       0.01 
freq.    1333.08  E(vib)   ...       0.01 
freq.    1346.26  E(vib)   ...       0.01 
freq.    1367.66  E(vib)   ...       0.01 
freq.    1367.81  E(vib)   ...       0.01 
freq.    1372.42  E(vib)   ...       0.01 
freq.    1385.59  E(vib)   ...       0.00 
freq.    1392.90  E(vib)   ...       0.00 
freq.    1426.42  E(vib)   ...       0.00 
freq.    1431.61  E(vib)   ...       0.00 
freq.    1439.61  E(vib)   ...       0.00 
freq.    1459.78  E(vib)   ...       0.00 
freq.    1467.49  E(vib)   ...       0.00 
freq.    1468.85  E(vib)   ...       0.00 
freq.    1475.14  E(vib)   ...       0.00 
freq.    1486.85  E(vib)   ...       0.00 
freq.    1497.52  E(vib)   ...       0.00 
freq.    1508.62  E(vib)   ...       0.00 
freq.    1517.57  E(vib)   ...       0.00 
freq.    1537.98  E(vib)   ...       0.00 
freq.    1566.23  E(vib)   ...       0.00 
freq.    1572.50  E(vib)   ...       0.00 
freq.    1574.45  E(vib)   ...       0.00 
freq.    1581.17  E(vib)   ...       0.00 
freq.    1590.28  E(vib)   ...       0.00 
freq.    1596.92  E(vib)   ...       0.00 
freq.    1610.16  E(vib)   ...       0.00 
freq.    1615.59  E(vib)   ...       0.00 
freq.    1627.51  E(vib)   ...       0.00 
freq.    1636.58  E(vib)   ...       0.00 
freq.    1643.87  E(vib)   ...       0.00 
freq.    3071.04  E(vib)   ...       0.00 
freq.    3107.28  E(vib)   ...       0.00 
freq.    3114.92  E(vib)   ...       0.00 
freq.    3116.76  E(vib)   ...       0.00 
freq.    3119.20  E(vib)   ...       0.00 
freq.    3120.94  E(vib)   ...       0.00 
freq.    3121.68  E(vib)   ...       0.00 
freq.    3122.98  E(vib)   ...       0.00 
freq.    3126.37  E(vib)   ...       0.00 
freq.    3126.72  E(vib)   ...       0.00 
freq.    3126.98  E(vib)   ...       0.00 
freq.    3131.71  E(vib)   ...       0.00 
freq.    3133.33  E(vib)   ...       0.00 
freq.    3133.85  E(vib)   ...       0.00 
freq.    3136.37  E(vib)   ...       0.00 
freq.    3138.35  E(vib)   ...       0.00 
freq.    3138.81  E(vib)   ...       0.00 
freq.    3139.51  E(vib)   ...       0.00 
freq.    3142.98  E(vib)   ...       0.00 
freq.    3144.63  E(vib)   ...       0.00 
freq.    3145.94  E(vib)   ...       0.00 
freq.    3149.15  E(vib)   ...       0.00 
freq.    3154.42  E(vib)   ...       0.00 
freq.    3181.25  E(vib)   ...       0.00 

------------
INNER ENERGY
------------

The inner energy is: U= E(el) + E(ZPE) + E(vib) + E(rot) + E(trans)
    E(el)   - is the total energy from the electronic structure calculation
              = E(kin-el) + E(nuc-el) + E(el-el) + E(nuc-nuc)
    E(ZPE)  - the the zero temperature vibrational energy from the frequency calculation
    E(vib)  - the the finite temperature correction to E(ZPE) due to population
              of excited vibrational states
    E(rot)  - is the rotational thermal energy
    E(trans)- is the translational thermal energy

Summary of contributions to the inner energy U:
Electronic energy                ...  -3058.69288783 Eh
Zero point energy                ...      0.47260079 Eh     296.56 kcal/mol
Thermal vibrational correction   ...      0.02635128 Eh      16.54 kcal/mol
Thermal rotational correction    ...      0.00141627 Eh       0.89 kcal/mol
Thermal translational correction ...      0.00141627 Eh       0.89 kcal/mol
-----------------------------------------------------------------------
Total thermal energy                  -3058.19110322 Eh


Summary of corrections to the electronic energy:
(perhaps to be used in another calculation)
Total thermal correction                  0.02918382 Eh      18.31 kcal/mol
Non-thermal (ZPE) correction              0.47260079 Eh     296.56 kcal/mol
-----------------------------------------------------------------------
Total correction                          0.50178461 Eh     314.87 kcal/mol


--------
ENTHALPY
--------

The enthalpy is H = U + kB*T
                kB is Boltzmann's constant
Total free energy                 ...  -3058.19110322 Eh 
Thermal Enthalpy correction       ...      0.00094421 Eh       0.59 kcal/mol
-----------------------------------------------------------------------
Total Enthalpy                    ...  -3058.19015901 Eh


Note: Only C1 symmetry has been detected, increase convergence thresholds 
      if your molecule has a higher symmetry. Symmetry factor of 1.0 is   
      used for the rotational entropy correction. 
 

Note: Rotational entropy computed according to Herzberg 
Infrared and Raman Spectra, Chapter V,1, Van Nostrand Reinhold, 1945 
Point Group:  C1, Symmetry Number:   1  
Rotational constants in cm-1:     0.004714     0.003473     0.002560 

Vibrational entropy computed according to the QRRHO of S. Grimme
Chem.Eur.J. 2012 18 9955


-------
ENTROPY
-------

The entropy contributions are T*S = T*(S(el)+S(vib)+S(rot)+S(trans))
     S(el)   - electronic entropy
     S(vib)  - vibrational entropy
     S(rot)  - rotational entropy
     S(trans)- translational entropy
The entropies will be listed as multiplied by the temperature to get
units of energy

Electronic entropy                ...      0.00000000 Eh      0.00 kcal/mol
Vibrational entropy               ...      0.04641504 Eh     29.13 kcal/mol
Rotational entropy                ...      0.01753048 Eh     11.00 kcal/mol
Translational entropy             ...      0.02121739 Eh     13.31 kcal/mol
-----------------------------------------------------------------------
Final entropy term                ...      0.08516291 Eh     53.44 kcal/mol

In case the symmetry of your molecule has not been determined correctly
or in case you have a reason to use a different symmetry number we print 
out the resulting rotational entropy values for sn=1,12 :
 --------------------------------------------------------
|  sn= 1 | S(rot)=       0.01753048 Eh     11.00 kcal/mol|
|  sn= 2 | S(rot)=       0.01687603 Eh     10.59 kcal/mol|
|  sn= 3 | S(rot)=       0.01649319 Eh     10.35 kcal/mol|
|  sn= 4 | S(rot)=       0.01622157 Eh     10.18 kcal/mol|
|  sn= 5 | S(rot)=       0.01601088 Eh     10.05 kcal/mol|
|  sn= 6 | S(rot)=       0.01583874 Eh      9.94 kcal/mol|
|  sn= 7 | S(rot)=       0.01569319 Eh      9.85 kcal/mol|
|  sn= 8 | S(rot)=       0.01556711 Eh      9.77 kcal/mol|
|  sn= 9 | S(rot)=       0.01545590 Eh      9.70 kcal/mol|
|  sn=10 | S(rot)=       0.01535642 Eh      9.64 kcal/mol|
|  sn=11 | S(rot)=       0.01526643 Eh      9.58 kcal/mol|
|  sn=12 | S(rot)=       0.01518428 Eh      9.53 kcal/mol|
 --------------------------------------------------------


-------------------
GIBBS FREE ENERGY
-------------------

The Gibbs free energy is G = H - T*S

Total enthalpy                    ...  -3058.19015901 Eh 
Total entropy correction          ...     -0.08516291 Eh    -53.44 kcal/mol
-----------------------------------------------------------------------
Final Gibbs free energy         ...  -3058.27532192 Eh

For completeness - the Gibbs free energy minus the electronic energy
G-E(el)                           ...      0.41756591 Eh    262.03 kcal/mol


Timings for individual modules:

Sum of individual times         ...     1717.266 sec (=  28.621 min)
GTO integral calculation        ...       38.223 sec (=   0.637 min)   2.2 %
SCF iterations                  ...      668.103 sec (=  11.135 min)  38.9 %
SCF Gradient evaluation         ...      100.694 sec (=   1.678 min)   5.9 %
Geometry relaxation             ...        8.819 sec (=   0.147 min)   0.5 %
Analytical frequency calculation...      901.427 sec (=  15.024 min)  52.5 %
                             ****ORCA TERMINATED NORMALLY****
TOTAL RUN TIME: 0 days 0 hours 31 minutes 30 seconds 22 msec
