
                                 *****************
                                 * O   R   C   A *
                                 *****************

                                            #,                                       
                                            ###                                      
                                            ####                                     
                                            #####                                    
                                            ######                                   
                                           ########,                                 
                                     ,,################,,,,,                         
                               ,,#################################,,                 
                          ,,##########################################,,             
                       ,#########################################, ''#####,          
                    ,#############################################,,   '####,        
                  ,##################################################,,,,####,       
                ,###########''''           ''''###############################       
              ,#####''   ,,,,##########,,,,          '''####'''          '####       
            ,##' ,,,,###########################,,,                        '##       
           ' ,,###''''                  '''############,,,                           
         ,,##''                                '''############,,,,        ,,,,,,###''
      ,#''                                            '''#######################'''  
     '                                                          ''''####''''         
             ,#######,   #######,   ,#######,      ##                                
            ,#'     '#,  ##    ##  ,#'     '#,    #''#        ######   ,####,        
            ##       ##  ##   ,#'  ##            #'  '#       #        #'  '#        
            ##       ##  #######   ##           ,######,      #####,   #    #        
            '#,     ,#'  ##    ##  '#,     ,#' ,#      #,         ##   #,  ,#        
             '#######'   ##     ##  '#######'  #'      '#     #####' # '####'        



                  #######################################################
                  #                        -***-                        #
                  #          Department of theory and spectroscopy      #
                  #    Directorship and core code : Frank Neese         #
                  #        Max Planck Institute fuer Kohlenforschung    #
                  #                Kaiser Wilhelm Platz 1               #
                  #                 D-45470 Muelheim/Ruhr               #
                  #                      Germany                        #
                  #                                                     #
                  #                  All rights reserved                #
                  #                        -***-                        #
                  #######################################################


                         Program Version 5.0.1 -  RELEASE  -


 With contributions from (in alphabetic order):
   Daniel Aravena         : Magnetic Suceptibility
   Michael Atanasov       : Ab Initio Ligand Field Theory (pilot matlab implementation)
   Alexander A. Auer      : GIAO ZORA, VPT2 properties, NMR spectrum
   Ute Becker             : Parallelization
   Giovanni Bistoni       : ED, misc. LED, open-shell LED, HFLD
   Martin Brehm           : Molecular dynamics
   Dmytro Bykov           : SCF Hessian
   Vijay G. Chilkuri      : MRCI spin determinant printing, contributions to CSF-ICE
   Dipayan Datta          : RHF DLPNO-CCSD density
   Achintya Kumar Dutta   : EOM-CC, STEOM-CC
   Dmitry Ganyushin       : Spin-Orbit,Spin-Spin,Magnetic field MRCI
   Miquel Garcia          : C-PCM and meta-GGA Hessian, CC/C-PCM, Gaussian charge scheme
   Yang Guo               : DLPNO-NEVPT2, F12-NEVPT2, CIM, IAO-localization
   Andreas Hansen         : Spin unrestricted coupled pair/coupled cluster methods
   Benjamin Helmich-Paris : MC-RPA, TRAH-SCF, COSX integrals
   Lee Huntington         : MR-EOM, pCC
   Robert Izsak           : Overlap fitted RIJCOSX, COSX-SCS-MP3, EOM
   Marcus Kettner         : VPT2
   Christian Kollmar      : KDIIS, OOCD, Brueckner-CCSD(T), CCSD density, CASPT2, CASPT2-K
   Simone Kossmann        : Meta GGA functionals, TD-DFT gradient, OOMP2, MP2 Hessian
   Martin Krupicka        : Initial AUTO-CI
   Lucas Lang             : DCDCAS
   Marvin Lechner         : AUTO-CI (C++ implementation), FIC-MRCC
   Dagmar Lenk            : GEPOL surface, SMD
   Dimitrios Liakos       : Extrapolation schemes; Compound Job, initial MDCI parallelization
   Dimitrios Manganas     : Further ROCIS development; embedding schemes
   Dimitrios Pantazis     : SARC Basis sets
   Anastasios Papadopoulos: AUTO-CI, single reference methods and gradients
   Taras Petrenko         : DFT Hessian,TD-DFT gradient, ASA, ECA, R-Raman, ABS, FL, XAS/XES, NRVS
   Peter Pinski           : DLPNO-MP2, DLPNO-MP2 Gradient
   Christoph Reimann      : Effective Core Potentials
   Marius Retegan         : Local ZFS, SOC
   Christoph Riplinger    : Optimizer, TS searches, QM/MM, DLPNO-CCSD(T), (RO)-DLPNO pert. Triples
   Tobias Risthaus        : Range-separated hybrids, TD-DFT gradient, RPA, STAB
   Michael Roemelt        : Original ROCIS implementation
   Masaaki Saitow         : Open-shell DLPNO-CCSD energy and density
   Barbara Sandhoefer     : DKH picture change effects
   Avijit Sen             : IP-ROCIS
   Kantharuban Sivalingam : CASSCF convergence, NEVPT2, FIC-MRCI
   Bernardo de Souza      : ESD, SOC TD-DFT
   Georgi Stoychev        : AutoAux, RI-MP2 NMR, DLPNO-MP2 response
   Willem Van den Heuvel  : Paramagnetic NMR
   Boris Wezisla          : Elementary symmetry handling
   Frank Wennmohs         : Technical directorship


 We gratefully acknowledge several colleagues who have allowed us to
 interface, adapt or use parts of their codes:
   Stefan Grimme, W. Hujo, H. Kruse, P. Pracht,  : VdW corrections, initial TS optimization,
                  C. Bannwarth, S. Ehlert          DFT functionals, gCP, sTDA/sTD-DF
   Ed Valeev, F. Pavosevic, A. Kumar             : LibInt (2-el integral package), F12 methods
   Garnet Chan, S. Sharma, J. Yang, R. Olivares  : DMRG
   Ulf Ekstrom                                   : XCFun DFT Library
   Mihaly Kallay                                 : mrcc  (arbitrary order and MRCC methods)
   Jiri Pittner, Ondrej Demel                    : Mk-CCSD
   Frank Weinhold                                : gennbo (NPA and NBO analysis)
   Christopher J. Cramer and Donald G. Truhlar   : smd solvation model
   Lars Goerigk                                  : TD-DFT with DH, B97 family of functionals
   V. Asgeirsson, H. Jonsson                     : NEB implementation
   FAccTs GmbH                                   : IRC, NEB, NEB-TS, DLPNO-Multilevel, CI-OPT
                                                   MM, QMMM, 2- and 3-layer-ONIOM, Crystal-QMMM,
                                                   LR-CPCM, SF, NACMEs, symmetry and pop. for TD-DFT,
                                                   nearIR, NL-DFT gradient (VV10), updates on ESD,
                                                   ML-optimized integration grids
   S Lehtola, MJT Oliveira, MAL Marques          : LibXC Library
   Liviu Ungur et al                             : ANISO software


 Your calculation uses the libint2 library for the computation of 2-el integrals
 For citations please refer to: http://libint.valeyev.net

 Your ORCA version has been built with support for libXC version: 5.1.0
 For citations please refer to: https://tddft.org/programs/libxc/

 This ORCA versions uses:
   CBLAS   interface :  Fast vector & matrix operations
   LAPACKE interface :  Fast linear algebra routines
   SCALAPACK package :  Parallel linear algebra routines
   Shared memory     :  Shared parallel matrices
   BLAS/LAPACK       :  OpenBLAS 0.3.15  USE64BITINT DYNAMIC_ARCH NO_AFFINITY Zen SINGLE_THREADED
        Core in use  :  Zen
   Copyright (c) 2011-2014, The OpenBLAS Project


Your calculation utilizes the atom-pairwise dispersion correction
based on tight binding partial charges (D4)
Cite in your paper:
E.Caldeweyher, C.Bannwarth, S.Grimme, J.Chem.Phys., (2017), 147, 034112.
E.Caldeweyher, S.Ehlert, A.Hansen, H.Neugebauer, S.Grimme, J.Chem.Phys., (2018), in progress.
   

XCFun DFT library Copyright 2009-2010 Ulf Ekstrom and contributors.
See http://admol.org/xcfun for more information.
This is free software; see the source code for copying conditions.
There is ABSOLUTELY NO WARRANTY; not even for MERCHANTABILITY or FITNESS FOR A PARTICULAR PURPOSE.
For details see the documentation.
Scientific users of this library should cite U. Ekstrom, L. Visscher, R. Bast, A. J. Thorvaldsen and K. Ruud;
J.Chem.Theor.Comp. 2010, DOI: 10.1021/ct100117s
XCFun Version 0.99 

================================================================================

----- Orbital basis set information -----
Your calculation utilizes the basis: def2-TZVP
   F. Weigend and R. Ahlrichs, Phys. Chem. Chem. Phys. 7, 3297 (2005).

----- AuxJ basis set information -----
Your calculation utilizes the auxiliary basis: def2/J
   F. Weigend, Phys. Chem. Chem. Phys. 8, 1057 (2006).

================================================================================
                                        WARNINGS
                       Please study these warnings very carefully!
================================================================================


WARNING: your system is open-shell and RHF/RKS was chosen
  ===> : WILL SWITCH to UHF/UKS


WARNING: Geometry Optimization
  ===> : Switching off AutoStart
         For restart on a previous wavefunction, please use MOREAD

INFO   : the flag for use of the SHARK integral package has been found!

================================================================================
                                       INPUT FILE
================================================================================
NAME = /scratch/negishi/li1724/112224-HS-TS/RESULT/258/70099_1/70099_1-TSOPT.in
|  1> ! wB97X D4 def2-TZVP defgrid2 OptTS Freq
|  2> 
|  3> %scf
|  4>   MaxIter 500
|  5> end
|  6> 
|  7> %pal
|  8>   nproc 24
|  9> end
| 10> 
| 11> %maxcore 2000
| 12> 
| 13> %geom
| 14>   Calc_Hess true
| 15>   Recalc_Hess 1
| 16> end
| 17> 
| 18> %base "70099_1-TSOPT"
| 19> 
| 20> *xyz 0 2
| 21> C    0.58788894   0.67623236  -1.24134147 
| 22> N   -0.68935335   1.16036633  -0.76933616 
| 23> N    0.40507991  -2.31040883  -0.24438249 
| 24> C   -1.26035432   0.44347757   0.14625213 
| 25> N    0.19815811   2.02651273   1.58056069 
| 26> N   -1.81010280  -0.21889884   0.93911276 
| 27> H    0.17326952   1.67758108   2.55685029 
| 28> H   -0.70897028   2.52233973   1.54039580 
| 29> H    0.88521460   1.26969241  -2.09975139 
| 30> H    0.54206862  -0.39068242  -1.48706614 
| 31> H    1.33859493   0.77300072  -0.45096990 
| 32> H   -0.28842920  -2.98929707  -0.64496354 
| 33> H   -0.11777667  -1.61893773   0.40186950 
| 34> H    0.98824871  -2.89219743   0.36970209 
| 35> *
| 36> 
| 37>                          ****END OF INPUT****
================================================================================

                       *****************************
                       * Geometry Optimization Run *
                       *****************************

Geometry optimization settings:
Update method            Update   .... Bofill
Choice of coordinates    CoordSys .... Z-matrix Internals
Initial Hessian          InHess   .... Almoef's Model

Convergence Tolerances:
Energy Change            TolE     ....  5.0000e-06 Eh
Max. Gradient            TolMAXG  ....  3.0000e-04 Eh/bohr
RMS Gradient             TolRMSG  ....  1.0000e-04 Eh/bohr
Max. Displacement        TolMAXD  ....  4.0000e-03 bohr
RMS Displacement         TolRMSD  ....  2.0000e-03 bohr
Strict Convergence                ....  False
------------------------------------------------------------------------------
                        ORCA OPTIMIZATION COORDINATE SETUP
------------------------------------------------------------------------------

The optimization will be done in new redundant internal coordinates
Making redundant internal coordinates   ...  (new redundants) done
Following TS mode number                ...     0
Evaluating the initial hessian          ...  (Is done on the fly) done
Evaluating the coordinates              ...  done
Calculating the B-matrix                .... done
Calculating the G-matrix                .... done
Diagonalizing the G-matrix              .... done
The first mode is                       ....  233
The number of degrees of freedom        ....   36

    -----------------------------------------------------------------
                    Redundant Internal Coordinates


    -----------------------------------------------------------------
         Definition                    Initial Value    d2E/dq (diagonal element)
    -----------------------------------------------------------------
      1. B(N   1,C   0)                  1.4452         0.000000   
      2. B(C   3,N   1)                  1.2955         0.000000   
      3. B(N   4,C   3)                  2.5866         0.000000   
      4. B(N   4,N   1)                  2.6570         0.000000   
      5. B(N   4,C   0)                  3.1525         0.000000   
      6. B(N   5,C   3)                  1.1703         0.000000   
      7. B(N   5,N   4)                  3.0800         0.000000   
      8. B(H   6,C   3)                  3.0642         0.000000   
      9. B(H   6,N   5)                  3.1855         0.000000   
     10. B(H   6,N   4)                  1.0371         0.000000   
     11. B(H   7,N   5)                  3.0147         0.000000   
     12. B(H   7,C   3)                  2.5631         0.000000   
     13. B(H   7,N   4)                  1.0346         0.000000   
     14. B(H   7,N   1)                  2.6815         0.000000   
     15. B(H   8,C   0)                  1.0851         0.000000   
     16. B(H   9,N   2)                  2.2909         0.000000   
     17. B(H   9,C   0)                  1.0958         0.000000   
     18. B(H  10,N   4)                  2.6456         0.000000   
     19. B(H  10,C   0)                  1.0944         0.000000   
     20. B(H  11,N   2)                  1.0499         0.000000   
     21. B(H  11,H   9)                  2.8551         0.000000   
     22. B(H  12,N   5)                  2.2611         0.000000   
     23. B(H  12,C   3)                  2.3716         0.000000   
     24. B(H  12,C   0)                  2.9096         0.000000   
     25. B(H  12,N   2)                  1.0813         0.000000   
     26. B(H  12,H  10)                  2.9274         0.000000   
     27. B(H  12,H   9)                  2.3478         0.000000   
     28. B(H  13,N   2)                  1.0275         0.000000   
     29. A(N   4,C   0,H  10)           53.1619         0.000000   
     30. A(H  10,C   0,H  12)           80.1100         0.000000   
     31. A(N   1,C   0,H  12)           82.2678         0.000000   
     32. A(N   4,C   0,H  12)           78.6010         0.000000   
     33. A(N   1,C   0,H   9)          111.2509         0.000000   
     34. A(H   8,C   0,H   9)          111.5035         0.000000   
     35. A(N   1,C   0,H  10)          109.9233         0.000000   
     36. A(H   9,C   0,H  10)          106.0652         0.000000   
     37. A(H   8,C   0,H  12)          160.8446         0.000000   
     38. A(H   9,C   0,H  12)           49.3434         0.000000   
     39. A(N   1,C   0,H   8)          108.5011         0.000000   
     40. A(N   4,C   0,H   9)          127.7766         0.000000   
     41. A(H   8,C   0,H  10)          109.5735         0.000000   
     42. A(N   4,C   0,H   8)          120.5135         0.000000   
     43. A(N   1,C   0,N   4)           56.9682         0.000000   
     44. A(C   0,N   1,N   4)           95.9032         0.000000   
     45. A(C   0,N   1,C   3)          115.7851         0.000000   
     46. A(C   3,N   1,N   4)           72.6961         0.000000   
     47. A(H   9,N   2,H  13)          139.8850         0.000000   
     48. A(H   9,N   2,H  11)          111.9860         0.000000   
     49. A(H  12,N   2,H  13)          106.2216         0.000000   
     50. A(H  11,N   2,H  13)          103.6983         0.000000   
     51. A(H   9,N   2,H  12)           79.4694         0.000000   
     52. A(H  11,N   2,H  12)          108.7922         0.000000   
     53. A(N   1,C   3,N   4)           78.7376         0.000000   
     54. A(N   1,C   3,H  12)          110.1856         0.000000   
     55. A(N   5,C   3,H  12)           70.1894         0.000000   
     56. A(N   4,C   3,H  12)          101.5838         0.000000   
     57. A(N   4,C   3,N   5)          103.6268         0.000000   
     58. A(C   0,N   4,C   3)           46.4654         0.000000   
     59. A(C   3,N   4,H   7)           77.1366         0.000000   
     60. A(C   3,N   4,H   6)          107.6118         0.000000   
     61. A(C   0,N   4,N   1)           27.1286         0.000000   
     62. A(N   1,N   4,H   7)           80.1551         0.000000   
     63. A(N   1,N   4,H   6)          135.6328         0.000000   
     64. A(C   0,N   4,H   7)          106.1958         0.000000   
     65. A(C   0,N   4,H   6)          134.5494         0.000000   
     66. A(N   5,N   4,H   6)           86.2800         0.000000   
     67. A(N   1,N   4,C   3)           28.5663         0.000000   
     68. A(N   5,N   4,H   7)           76.6792         0.000000   
     69. A(H   6,N   4,H   7)          100.1808         0.000000   
     70. A(N   1,N   4,N   5)           50.2358         0.000000   
     71. A(C   0,N   4,N   5)           65.2871         0.000000   
     72. A(C   3,N   4,N   5)           21.6706         0.000000   
     73. A(C   3,N   5,H  12)           80.6709         0.000000   
     74. A(N   4,N   5,H  12)           90.7375         0.000000   
     75. A(C   3,N   5,N   4)           54.7026         0.000000   
     76. A(N   2,H   9,H  11)           19.9370         0.000000   
     77. A(C   0,H   9,H  11)          146.3245         0.000000   
     78. A(C   0,H   9,N   2)          134.1659         0.000000   
     79. A(H  11,H   9,H  12)           37.3249         0.000000   
     80. A(N   2,H   9,H  12)           26.9231         0.000000   
     81. A(C   0,H   9,H  12)          109.9195         0.000000   
     82. A(C   0,H  10,H  12)           78.2807         0.000000   
     83. A(N   2,H  11,H   9)           48.0770         0.000000   
     84. A(C   3,H  12,N   5)           29.1397         0.000000   
     85. A(C   0,H  12,N   5)           80.0542         0.000000   
     86. A(H   9,H  12,H  10)           36.7096         0.000000   
     87. A(N   2,H  12,N   5)          154.1427         0.000000   
     88. A(N   5,H  12,H  10)           86.3103         0.000000   
     89. A(C   3,H  12,H  10)           59.8487         0.000000   
     90. A(C   0,H  12,H  10)           21.6093         0.000000   
     91. A(N   2,H  12,H  10)           96.1905         0.000000   
     92. A(C   0,H  12,C   3)           50.9488         0.000000   
     93. A(N   2,H  12,C   3)          136.4421         0.000000   
     94. A(N   5,H  12,H   9)           94.4499         0.000000   
     95. A(C   3,H  12,H   9)           66.0292         0.000000   
     96. A(C   0,H  12,H   9)           20.7372         0.000000   
     97. A(N   2,H  12,H   9)           73.6076         0.000000   
     98. A(C   0,H  12,N   2)           92.8450         0.000000   
     99. D(C   3,N   1,C   0,H   9)     48.4703         0.000000   
    100. D(N   4,N   1,C   0,H  12)     81.3948         0.000000   
    101. D(N   4,N   1,C   0,H  10)      4.9027         0.000000   
    102. D(N   4,N   1,C   0,H   8)   -114.9021         0.000000   
    103. D(C   3,N   1,C   0,N   4)    -73.6120         0.000000   
    104. D(N   4,N   1,C   0,H   9)    122.0823         0.000000   
    105. D(C   3,N   1,C   0,H  12)      7.7828         0.000000   
    106. D(C   3,N   1,C   0,H  10)    -68.7092         0.000000   
    107. D(C   3,N   1,C   0,H   8)    171.4859         0.000000   
    108. D(H  12,C   3,N   1,N   4)    -98.3333         0.000000   
    109. D(H  12,C   3,N   1,C   0)    -10.1022         0.000000   
    110. D(N   4,C   3,N   1,C   0)     88.2311         0.000000   
    111. D(N   1,N   4,C   3,H  12)    108.5623         0.000000   
    112. D(N   1,N   4,C   0,H   9)    -92.4676         0.000000   
    113. D(C   3,N   4,C   0,H   9)    -55.8267         0.000000   
    114. D(C   3,N   4,C   0,H  10)   -137.5972         0.000000   
    115. D(H   7,N   4,C   3,H  12)   -158.4197         0.000000   
    116. D(H   6,N   4,C   0,H   9)     13.7080         0.000000   
    117. D(C   3,N   4,C   0,N   1)     36.6409         0.000000   
    118. D(H   7,N   4,C   3,N   5)    -86.2554         0.000000   
    119. D(H   6,N   4,C   3,H  12)    -61.6586         0.000000   
    120. D(H   7,N   4,C   0,H  12)   -104.9246         0.000000   
    121. D(C   0,N   4,C   3,N   1)    -34.6880         0.000000   
    122. D(C   3,N   4,C   0,H  12)    -51.4898         0.000000   
    123. D(C   0,N   4,C   3,N   5)    146.0385         0.000000   
    124. D(N   5,N   4,C   3,N   1)    179.2734         0.000000   
    125. D(N   1,N   4,C   3,N   5)   -179.2734         0.000000   
    126. D(N   1,N   4,C   0,H  12)    -88.1307         0.000000   
    127. D(C   0,N   4,C   3,H  12)     73.8743         0.000000   
    128. D(N   1,N   4,C   0,H  10)   -174.2381         0.000000   
    129. D(N   5,N   4,C   0,H   8)    142.9849         0.000000   
    130. D(H   7,N   4,N   1,C   0)    163.6437         0.000000   
    131. D(C   0,N   4,N   1,C   3)    115.2035         0.000000   
    132. D(H   7,N   4,C   0,H   9)   -109.2615         0.000000   
    133. D(H   6,N   4,N   1,C   0)   -101.8171         0.000000   
    134. D(H   7,N   4,C   0,H   8)     76.4246         0.000000   
    135. D(H   6,N   4,N   1,C   3)     13.3865         0.000000   
    136. D(H   7,N   4,N   1,C   3)    -81.1528         0.000000   
    137. D(N   5,N   4,C   0,H  12)    -38.3643         0.000000   
    138. D(N   5,N   4,C   0,H  10)   -124.4717         0.000000   
    139. D(N   5,N   4,C   0,H   9)    -42.7012         0.000000   
    140. D(C   3,N   4,N   1,C   0)   -115.2035         0.000000   
    141. D(H   6,N   4,C   3,N   5)     10.5057         0.000000   
    142. D(H   7,N   4,C   3,N   1)     93.0180         0.000000   
    143. D(N   5,N   4,C   0,N   1)     49.7664         0.000000   
    144. D(N   1,N   4,C   0,H   8)     93.2185         0.000000   
    145. D(H   6,N   4,C   0,H  12)     18.0449         0.000000   
    146. D(H   6,N   4,C   3,N   1)   -170.2208         0.000000   
    147. D(H   6,N   4,C   0,H  10)    -68.0625         0.000000   
    148. D(N   5,N   4,C   3,H  12)    -72.1643         0.000000   
    149. D(H   6,N   4,C   0,N   1)    106.1756         0.000000   
    150. D(C   3,N   4,C   0,H   8)    129.8594         0.000000   
    151. D(H   7,N   4,C   0,N   1)    -16.7939         0.000000   
    152. D(H   6,N   4,C   0,H   8)   -160.6059         0.000000   
    153. D(H   7,N   4,C   0,H  10)    168.9680         0.000000   
    154. D(C   3,N   5,N   4,H   7)     88.6433         0.000000   
    155. D(H  12,N   5,N   1,C   0)     -8.4639         0.000000   
    156. D(H  12,N   5,C   3,N   4)    -97.6017         0.000000   
    157. D(C   3,N   5,N   4,H   6)   -169.9705         0.000000   
    158. D(N   4,N   5,C   3,H  12)     97.6017         0.000000   
    159. D(H  12,N   5,N   4,H   6)    -91.9610         0.000000   
    160. D(C   3,N   5,N   4,C   0)    -26.4757         0.000000   
    161. D(H  12,N   5,N   4,H   7)    166.6529         0.000000   
    162. D(H  12,N   5,N   4,C   3)     78.0096         0.000000   
    163. D(H  12,N   5,N   4,C   0)     51.5339         0.000000   
    164. D(H  12,H   9,N   2,H  13)   -102.7296         0.000000   
    165. D(H  11,H   9,N   2,H  13)    151.1116         0.000000   
    166. D(C   0,H   9,N   2,H  12)     30.2677         0.000000   
    167. D(C   0,H   9,N   2,H  11)    136.4265         0.000000   
    168. D(H  12,H   9,C   0,N   1)    -58.3801         0.000000   
    169. D(H  11,H   9,C   0,N   4)     16.6385         0.000000   
    170. D(H  11,H   9,C   0,H  12)     11.0309         0.000000   
    171. D(H  11,H   9,C   0,H  10)     72.1542         0.000000   
    172. D(H  12,H   9,C   0,H   8)   -179.6562         0.000000   
    173. D(H  11,H   9,C   0,H   8)   -168.6254         0.000000   
    174. D(H  11,H   9,C   0,N   1)    -47.3492         0.000000   
    175. D(N   2,H   9,C   0,N   4)     -8.4413         0.000000   
    176. D(H  12,H   9,C   0,N   4)      5.6076         0.000000   
    177. D(N   2,H   9,C   0,H  12)    -14.0489         0.000000   
    178. D(C   0,H   9,N   2,H  13)    -72.4619         0.000000   
    179. D(N   2,H   9,C   0,H  10)     47.0744         0.000000   
    180. D(H  12,H   9,N   2,H  11)    106.1588         0.000000   
    181. D(N   2,H   9,C   0,H   8)    166.2949         0.000000   
    182. D(N   2,H   9,C   0,N   1)    -72.4290         0.000000   
    183. D(H  11,H   9,N   2,H  12)   -106.1588         0.000000   
    184. D(H  12,H   9,C   0,H  10)     61.1233         0.000000   
    185. D(H  12,H  10,C   0,N   4)     83.1042         0.000000   
    186. D(H  12,H  10,C   0,H   9)    -42.4015         0.000000   
    187. D(H  12,H  10,C   0,H   8)   -162.8819         0.000000   
    188. D(H  12,H  10,C   0,N   1)     77.9679         0.000000   
    189. D(N   2,H  11,H   9,H  12)    -45.8297         0.000000   
    190. D(N   2,H  11,H   9,C   0)    -63.0884         0.000000   
    191. D(H   9,H  11,N   2,H  13)   -161.3135         0.000000   
    192. D(H   9,H  11,N   2,H  12)     85.9395         0.000000   
    193. D(N   5,H  12,N   2,H   9)     65.0683         0.000000   
    194. D(N   5,H  12,N   2,H  13)   -155.8169         0.000000   
    195. D(N   5,H  12,N   2,H  11)    -44.7466         0.000000   
    196. D(C   3,H  12,N   2,H  13)    161.6079         0.000000   
    197. D(C   3,H  12,N   2,H  11)    -87.3218         0.000000   
    198. D(C   0,H  12,N   2,H   9)     -7.8359         0.000000   
    199. D(C   0,H  12,N   2,H  11)   -117.6508         0.000000   
    200. D(H  10,H  12,C   0,N   4)    -54.1479         0.000000   
    201. D(H  10,H  12,C   0,H   9)    121.3332         0.000000   
    202. D(H  10,H  12,C   0,H   8)    122.3079         0.000000   
    203. D(H  10,H  12,C   0,N   1)   -111.8852         0.000000   
    204. D(H   9,H  12,C   0,N   4)   -175.4810         0.000000   
    205. D(H   9,H  12,C   0,H  10)   -121.3332         0.000000   
    206. D(H   9,H  12,C   0,H   8)      0.9747         0.000000   
    207. D(H   9,H  12,C   0,N   1)    126.7816         0.000000   
    208. D(N   5,H  12,C   0,N   4)     51.2351         0.000000   
    209. D(N   5,H  12,C   0,H  10)    105.3830         0.000000   
    210. D(N   5,H  12,C   0,H   9)   -133.2838         0.000000   
    211. D(N   5,H  12,C   0,H   8)   -132.3091         0.000000   
    212. D(N   5,H  12,C   0,N   1)     -6.5022         0.000000   
    213. D(C   3,H  12,C   0,N   4)     52.8170         0.000000   
    214. D(C   3,H  12,C   0,H  10)    106.9649         0.000000   
    215. D(C   3,H  12,C   0,H   9)   -131.7019         0.000000   
    216. D(C   0,H  12,N   2,H  13)    131.2789         0.000000   
    217. D(C   3,H  12,C   0,H   8)   -130.7272         0.000000   
    218. D(C   3,H  12,C   0,N   1)     -4.9203         0.000000   
    219. D(N   2,H  12,C   0,N   4)   -153.8029         0.000000   
    220. D(C   3,H  12,N   2,H   9)     22.4931         0.000000   
    221. D(N   2,H  12,C   0,H  10)    -99.6551         0.000000   
    222. D(N   2,H  12,C   0,H   9)     21.6781         0.000000   
    223. D(N   2,H  12,C   0,H   8)     22.6528         0.000000   
    224. D(H   9,H  12,N   2,H  11)   -109.8148         0.000000   
    225. D(N   2,H  12,C   0,N   1)    148.4597         0.000000   
    226. D(N   5,H  12,H  10,C   0)    -72.1116         0.000000   
    227. D(C   3,H  12,H  10,C   0)    -59.2058         0.000000   
    228. D(N   2,H  12,H  10,C   0)     82.0526         0.000000   
    229. D(H  10,H  12,H   9,N   2)    125.6313         0.000000   
    230. D(H  10,H  12,H   9,C   0)    -31.7517         0.000000   
    231. D(N   5,H  12,H   9,H  11)   -123.9346         0.000000   
    232. D(N   5,H  12,H   9,N   2)   -156.6290         0.000000   
    233. D(N   5,H  12,H   9,C   0)     45.9880         0.000000   
    234. D(C   3,H  12,H   9,H  11)   -130.5370         0.000000   
    235. D(C   3,H  12,H   9,N   2)   -163.2313         0.000000   
    236. D(C   0,H  12,H   9,H  11)   -169.9226         0.000000   
    237. D(C   0,H  12,H   9,N   2)    157.3830         0.000000   
    238. D(N   2,H  12,H   9,H  11)     32.6944         0.000000   
    239. D(H  10,H  12,N   5,N   4)    -30.6370         0.000000   
    240. D(H  10,H  12,N   5,C   3)     23.3670         0.000000   
    241. D(H   9,H  12,N   5,N   4)    -66.4640         0.000000   
    242. D(C   3,H  12,N   5,N   4)    -54.0040         0.000000   
    243. D(C   0,H  12,N   5,N   4)    -51.4806         0.000000   
    244. D(C   0,H  12,N   5,C   3)      2.5233         0.000000   
    245. D(N   2,H  12,N   5,N   4)   -127.2239         0.000000   
    246. D(N   2,H  12,N   5,C   3)    -73.2199         0.000000   
    247. D(H  10,H  12,C   3,N   4)    -52.2858         0.000000   
    248. D(H   9,H  12,N   5,C   3)    -12.4601         0.000000   
    249. D(H  10,H  12,C   3,N   5)   -152.7595         0.000000   
    250. D(H  10,H  12,C   3,N   1)     29.8370         0.000000   
    251. D(H   9,H  12,C   3,N   4)    -93.1422         0.000000   
    252. D(N   2,H  12,H   9,C   0)   -157.3830         0.000000   
    253. D(H   9,H  12,C   3,N   5)    166.3841         0.000000   
    254. D(H   9,H  12,C   3,N   1)    -11.0194         0.000000   
    255. D(N   5,H  12,C   3,N   4)    100.4738         0.000000   
    256. D(C   3,H  12,H   9,C   0)     39.3856         0.000000   
    257. D(N   5,H  12,C   3,N   1)   -177.4035         0.000000   
    258. D(C   0,H  12,C   3,N   4)    -76.3252         0.000000   
    259. D(C   0,H  12,C   3,N   5)   -176.7989         0.000000   
    260. D(C   0,H  12,C   3,N   1)      5.7976         0.000000   
    261. D(N   2,H  12,C   3,N   4)   -116.8243         0.000000   
    262. D(N   2,H  12,C   3,N   5)    142.7019         0.000000   
    263. D(N   2,H  12,C   3,N   1)    -34.7015         0.000000   
    264. D(H  10,H  12,H   9,H  11)    158.3256         0.000000   
    265. D(H  10,H  12,N   2,H   9)    -29.2551         0.000000   
    266. D(H  10,H  12,N   2,H  13)    109.8598         0.000000   
    267. D(H  10,H  12,N   2,H  11)   -139.0699         0.000000   
    268. D(H   9,H  12,H  10,C   0)     30.3950         0.000000   
    269. D(H   9,H  12,N   2,H  13)    139.1149         0.000000   
    -----------------------------------------------------------------

Number of atoms                         .... 14
Number of degrees of freedom            .... 269

         *************************************************************
         *                GEOMETRY OPTIMIZATION CYCLE   1            *
         *************************************************************
---------------------------------
CARTESIAN COORDINATES (ANGSTROEM)
---------------------------------
  C      0.587889    0.676232   -1.241341
  N     -0.689353    1.160366   -0.769336
  N      0.405080   -2.310409   -0.244382
  C     -1.260354    0.443478    0.146252
  N      0.198158    2.026513    1.580561
  N     -1.810103   -0.218899    0.939113
  H      0.173270    1.677581    2.556850
  H     -0.708970    2.522340    1.540396
  H      0.885215    1.269692   -2.099751
  H      0.542069   -0.390682   -1.487066
  H      1.338595    0.773001   -0.450970
  H     -0.288429   -2.989297   -0.644964
  H     -0.117777   -1.618938    0.401869
  H      0.988249   -2.892197    0.369702

----------------------------
CARTESIAN COORDINATES (A.U.)
----------------------------
  NO LB      ZA    FRAG     MASS         X           Y           Z
   0 C     6.0000    0    12.011    1.110949    1.277894   -2.345795
   1 N     7.0000    0    14.007   -1.302689    2.192775   -1.453835
   2 N     7.0000    0    14.007    0.765490   -4.366040   -0.461816
   3 C     6.0000    0    12.011   -2.381724    0.838051    0.276376
   4 N     7.0000    0    14.007    0.374465    3.829554    2.986827
   5 N     7.0000    0    14.007   -3.420599   -0.413659    1.774666
   6 H     1.0000    0     1.008    0.327432    3.170169    4.831747
   7 H     1.0000    0     1.008   -1.339760    4.766531    2.910926
   8 H     1.0000    0     1.008    1.672813    2.399371   -3.967955
   9 H     1.0000    0     1.008    1.024361   -0.738283   -2.810148
  10 H     1.0000    0     1.008    2.529578    1.460760   -0.852210
  11 H     1.0000    0     1.008   -0.545052   -5.648953   -1.218804
  12 H     1.0000    0     1.008   -0.222566   -3.059349    0.759423
  13 H     1.0000    0     1.008    1.867519   -5.465461    0.698636

--------------------------------
INTERNAL COORDINATES (ANGSTROEM)
--------------------------------
 C      0   0   0     0.000000000000     0.00000000     0.00000000
 N      1   0   0     1.445172163080     0.00000000     0.00000000
 N      1   2   0     3.153945457210    99.36731090     0.00000000
 C      2   1   3     1.295481963881   115.78510098    18.24198324
 N      4   2   1     2.586600060224    78.73763811    88.23107259
 N      4   2   1     1.170296491660   177.53140379   251.60537016
 H      5   4   2     1.037069969362   107.61179538   189.77916159
 H      5   4   2     1.034572157107    77.13662323    93.01802486
 H      1   2   3     1.085110579524   108.50110287   153.24392381
 H      1   2   3     1.095804390826   111.25089616    30.22833260
 H      1   2   3     1.094354064087   109.92329344   273.04879062
 H      3   1   2     1.049909189255   122.00532394    66.85866928
 H      3   1   2     1.081273748855    67.13126740   328.30838890
 H      3   1   2     1.027454960462   133.80702889   237.41763344

---------------------------
INTERNAL COORDINATES (A.U.)
---------------------------
 C      0   0   0     0.000000000000     0.00000000     0.00000000
 N      1   0   0     2.730979604587     0.00000000     0.00000000
 N      1   2   0     5.960093155452    99.36731090     0.00000000
 C      2   1   3     2.448106123169   115.78510098    18.24198324
 N      4   2   1     4.887965731807    78.73763811    88.23107259
 N      4   2   1     2.211539864726   177.53140379   251.60537016
 H      5   4   2     1.959778223808   107.61179538   189.77916159
 H      5   4   2     1.955058042713    77.13662323    93.01802486
 H      1   2   3     2.050561820321   108.50110287   153.24392381
 H      1   2   3     2.070770195010   111.25089616    30.22833260
 H      1   2   3     2.068029474668   109.92329344   273.04879062
 H      3   1   2     1.984040833180   122.00532394    66.85866928
 H      3   1   2     2.043311261135    67.13126740   328.30838890
 H      3   1   2     1.941608490211   133.80702889   237.41763344

---------------------
BASIS SET INFORMATION
---------------------
There are 3 groups of distinct atoms

 Group   1 Type C   : 11s6p2d1f contracted to 5s3p2d1f pattern {62111/411/11/1}
 Group   2 Type N   : 11s6p2d1f contracted to 5s3p2d1f pattern {62111/411/11/1}
 Group   3 Type H   : 5s1p contracted to 3s1p pattern {311/1}

Atom   0C    basis set group =>   1
Atom   1N    basis set group =>   2
Atom   2N    basis set group =>   2
Atom   3C    basis set group =>   1
Atom   4N    basis set group =>   2
Atom   5N    basis set group =>   2
Atom   6H    basis set group =>   3
Atom   7H    basis set group =>   3
Atom   8H    basis set group =>   3
Atom   9H    basis set group =>   3
Atom  10H    basis set group =>   3
Atom  11H    basis set group =>   3
Atom  12H    basis set group =>   3
Atom  13H    basis set group =>   3
---------------------------------
AUXILIARY/J BASIS SET INFORMATION
---------------------------------
There are 3 groups of distinct atoms

 Group   1 Type C   : 12s5p4d2f1g contracted to 6s4p3d1f1g pattern {711111/2111/211/2/1}
 Group   2 Type N   : 12s5p4d2f1g contracted to 6s4p3d1f1g pattern {711111/2111/211/2/1}
 Group   3 Type H   : 5s2p1d contracted to 3s1p1d pattern {311/2/1}

Atom   0C    basis set group =>   1
Atom   1N    basis set group =>   2
Atom   2N    basis set group =>   2
Atom   3C    basis set group =>   1
Atom   4N    basis set group =>   2
Atom   5N    basis set group =>   2
Atom   6H    basis set group =>   3
Atom   7H    basis set group =>   3
Atom   8H    basis set group =>   3
Atom   9H    basis set group =>   3
Atom  10H    basis set group =>   3
Atom  11H    basis set group =>   3
Atom  12H    basis set group =>   3
Atom  13H    basis set group =>   3
[file orca_main/mainfcts.cpp, line 629]: Error : multiplicity (2) is even and number of electrons (48) is even -> impossible

