      -----------------------------------------------------------      
     |                   =====================                   |     
     |                           x T B                           |     
     |                   =====================                   |     
     |                         S. Grimme                         |     
     |          Mulliken Center for Theoretical Chemistry        |     
     |                    University of Bonn                     |     
      -----------------------------------------------------------      

   * xtb version 6.5.1 (fef0646) compiled by 'conda@b96dff2e9fd6' on 2023-01-04

   xtb is free software: you can redistribute it and/or modify it under
   the terms of the GNU Lesser General Public License as published by
   the Free Software Foundation, either version 3 of the License, or
   (at your option) any later version.
   
   xtb is distributed in the hope that it will be useful,
   but WITHOUT ANY WARRANTY; without even the implied warranty of
   MERCHANTABILITY or FITNESS FOR A PARTICULAR PURPOSE.  See the
   GNU Lesser General Public License for more details.
   
   Cite this work as:
   * C. Bannwarth, E. Caldeweyher, S. Ehlert, A. Hansen, P. Pracht,
     J. Seibert, S. Spicher, S. Grimme, WIREs Comput. Mol. Sci., 2020, 11,
     e01493. DOI: 10.1002/wcms.1493
   
   for GFN2-xTB:
   * C. Bannwarth, S. Ehlert and S. Grimme., J. Chem. Theory Comput., 2019,
     15, 1652-1671. DOI: 10.1021/acs.jctc.8b01176
   for GFN1-xTB:
   * S. Grimme, C. Bannwarth, P. Shushkov, J. Chem. Theory Comput., 2017,
     13, 1989-2009. DOI: 10.1021/acs.jctc.7b00118
   for GFN0-xTB:
   * P. Pracht, E. Caldeweyher, S. Ehlert, S. Grimme, ChemRxiv, 2019, preprint.
     DOI: 10.26434/chemrxiv.8326202.v1
   for GFN-FF:
   * S. Spicher and S. Grimme, Angew. Chem. Int. Ed., 2020, 59, 15665-15673.
     DOI: 10.1002/anie.202004239
   
   for ALPB and GBSA implicit solvation:
   * S. Ehlert, M. Stahn, S. Spicher, S. Grimme, J. Chem. Theory Comput.,
     2021, 17, 4250-4261. DOI: 10.1021/acs.jctc.1c00471
   
   for DFT-D4:
   * E. Caldeweyher, C. Bannwarth and S. Grimme, J. Chem. Phys., 2017,
     147, 034112. DOI: 10.1063/1.4993215
   * E. Caldeweyher, S. Ehlert, A. Hansen, H. Neugebauer, S. Spicher,
     C. Bannwarth and S. Grimme, J. Chem. Phys., 2019, 150, 154122.
     DOI: 10.1063/1.5090222
   * E. Caldeweyher, J.-M. Mewes, S. Ehlert and S. Grimme, Phys. Chem. Chem. Phys.
     2020, 22, 8499-8512. DOI: 10.1039/D0CP00502A
   
   for sTDA-xTB:
   * S. Grimme and C. Bannwarth, J. Chem. Phys., 2016, 145, 054103.
     DOI: 10.1063/1.4959605
   
   in the mass-spec context:
   * V. Asgeirsson, C. Bauer and S. Grimme, Chem. Sci., 2017, 8, 4879.
     DOI: 10.1039/c7sc00601b
   * J. Koopman and S. Grimme, ACS Omega 2019, 4, 12, 15120-15133.
     DOI: 10.1021/acsomega.9b02011
   
   for metadynamics refer to:
   * S. Grimme, J. Chem. Theory Comput., 2019, 155, 2847-2862
     DOI: 10.1021/acs.jctc.9b00143
   
   for SPH calculations refer to:
   * S. Spicher and S. Grimme, J. Chem. Theory Comput., 2021, 17, 1701-1714
     DOI: 10.1021/acs.jctc.0c01306
   
   with help from (in alphabetical order)
   P. Atkinson, C. Bannwarth, F. Bohle, G. Brandenburg, E. Caldeweyher
   M. Checinski, S. Dohm, S. Ehlert, S. Ehrlich, I. Gerasimov, C. Hölzer
   A. Katbashev, J. Koopman, C. Lavigne, S. Lehtola, F. März, M. Müller,
   F. Musil, H. Neugebauer, J. Pisarek, C. Plett, P. Pracht, F. Pultar,
   J. Seibert, P. Shushkov, S. Spicher, M. Stahn, M. Steiner, T. Strunk,
   J. Stückrath, T. Rose, and J. Unsleber
   
 * started run on 2024/03/10 at 13:19:47.636     

           -------------------------------------------------
          |                Calculation Setup                |
           -------------------------------------------------

          program call               : xtb /scratch/negishi/li1724/Test-4-5-just-xtbrun/xtb_run/641656_2_init.xyz --iterations 300 --chrg -1 --uhf 0 --namespace 641656_2_opt --gfn 2 --opt --parallel 1 --input /scratch/negishi/li1724/Test-4-5-just-xtbrun/xtb_run/641656_2_opt.xcontrol
          hostname                   : a084
          calculation namespace      : 641656_2_opt
          coordinate file            : /scratch/negishi/li1724/Test-4-5-just-xtbrun/xtb_run/641656_2_init.xyz
          omp threads                :                     1

   ID    Z sym.   atoms
    1   35 Br     1
    2    6 C      2-42
    3   29 Cu     43
    4    1 H      44-74
    5    7 N      75, 76
    6    8 O      77
constraining bond 43 38 to    2.0590000 Å, actual value:    1.9494435 Å
constraining bond 43 75 to    2.0020000 Å, actual value:    1.9059894 Å
constraining bond 43 76 to    2.0020000 Å, actual value:    1.8625529 Å
constraining bond 32 43 to    2.7500000 Å, actual value:    2.7584236 Å
constraining bond 37 43 to    2.7500000 Å, actual value:    2.8010172 Å
constraining bond 43 1 to    3.5000000 Å, actual value:    3.2074305 Å
constraining bond 43 22 to    3.5000000 Å, actual value:    5.0215325 Å

molecular fragmentation (1/2 indicates fragments):
122222222222221112211112222222222222222222221222221211122212122222222222
22221
# atoms in fragment 1/2:    16    61
 fragment masses (1/2) :      187.03      524.12
CMA distance (Bohr)    :  12.751
constraining FC (au)   :  0.5000

           -------------------------------------------------
          |                 G F N 2 - x T B                 |
           -------------------------------------------------

        Reference                      10.1021/acs.jctc.8b01176
      * Hamiltonian:
        H0-scaling (s, p, d)           1.850000    2.230000    2.230000
        zeta-weighting                 0.500000
      * Dispersion:
        s8                             2.700000
        a1                             0.520000
        a2                             5.000000
        s9                             5.000000
      * Repulsion:
        kExp                           1.500000    1.000000
        rExp                           1.000000
      * Coulomb:
        alpha                          2.000000
        third order                    shell-resolved
        anisotropic                    true
        a3                             3.000000
        a5                             4.000000
        cn-shift                       1.200000
        cn-exp                         4.000000
        max-rad                        5.000000


          ...................................................
          :                      SETUP                      :
          :.................................................:
          :  # basis functions                 227          :
          :  # atomic orbitals                 225          :
          :  # shells                          125          :
          :  # electrons                       230          :
          :  max. iterations                   300          :
          :  Hamiltonian                  GFN2-xTB          :
          :  restarted?                      false          :
          :  GBSA solvation                  false          :
          :  PC potential                    false          :
          :  electronic temp.          300.0000000     K    :
          :  accuracy                    1.0000000          :
          :  -> integral cutoff          0.2500000E+02      :
          :  -> integral neglect         0.1000000E-07      :
          :  -> SCF convergence          0.1000000E-05 Eh   :
          :  -> wf. convergence          0.1000000E-03 e    :
          :  Broyden damping             0.4000000          :
          ...................................................

 iter      E             dE          RMSdq      gap      omega  full diag
   1   -123.3374180 -0.123337E+03  0.459E+00    1.09       0.0  T
   2   -123.2517806  0.856374E-01  0.285E+00    0.63       1.0  T
   3   -122.9242961  0.327485E+00  0.273E+00    1.53       1.0  T
   4   -123.4574633 -0.533167E+00  0.101E+00    0.65       1.0  T
   5   -123.5002666 -0.428033E-01  0.527E-01    0.45       1.0  T
   6   -123.5144149 -0.141483E-01  0.259E-01    0.32       1.0  T
   7   -123.5152504 -0.835472E-03  0.179E-01    0.29       1.0  T
   8   -123.5157303 -0.479893E-03  0.104E-01    0.34       1.0  T
   9   -123.5158959 -0.165630E-03  0.729E-02    0.30       1.0  T
  10   -123.5160028 -0.106915E-03  0.414E-02    0.32       1.0  T
  11   -123.5160494 -0.465537E-04  0.192E-02    0.32       1.0  T
  12   -123.5160654 -0.159782E-04  0.860E-03    0.32       1.3  T
  13   -123.5160665 -0.115533E-05  0.466E-03    0.32       2.4  T
  14   -123.5160669 -0.399976E-06  0.281E-03    0.32       4.1  T
  15   -123.5160670 -0.292168E-07  0.204E-03    0.32       5.6  T
  16   -123.5160671 -0.118849E-06  0.105E-03    0.32      10.9  T
  17   -123.5160671 -0.221981E-07  0.618E-04    0.32      18.4  T
  18   -123.5160671 -0.983866E-08  0.400E-04    0.32      28.5  T

   *** convergence criteria satisfied after 18 iterations ***

         #    Occupation            Energy/Eh            Energy/eV
      -------------------------------------------------------------
         1        2.0000           -0.7532272             -20.4964
       ...           ...                  ...                  ...
       109        2.0000           -0.2448717              -6.6633
       110        2.0000           -0.2385127              -6.4903
       111        2.0000           -0.2364432              -6.4339
       112        2.0000           -0.2225691              -6.0564
       113        2.0000           -0.2196768              -5.9777
       114        2.0000           -0.2046674              -5.5693
       115        1.9962           -0.1924311              -5.2363 (HOMO)
       116        0.0038           -0.1805364              -4.9126 (LUMO)
       117        0.0000           -0.1713965              -4.6639
       118                         -0.1601214              -4.3571
       119                         -0.1498656              -4.0781
       120                         -0.1348265              -3.6688
       ...                                ...                  ...
       225                          0.8692260              23.6528
      -------------------------------------------------------------
                  HL-Gap            0.0118946 Eh            0.3237 eV
             Fermi-level           -0.1864838 Eh           -5.0745 eV

 SCC (total)                   0 d,  0 h,  0 min,  0.257 sec
 SCC setup                      ...        0 min,  0.001 sec (  0.384%)
 Dispersion                     ...        0 min,  0.001 sec (  0.565%)
 classical contributions        ...        0 min,  0.000 sec (  0.163%)
 integral evaluation            ...        0 min,  0.022 sec (  8.582%)
 iterations                     ...        0 min,  0.150 sec ( 58.341%)
 molecular gradient             ...        0 min,  0.081 sec ( 31.662%)
 printout                       ...        0 min,  0.001 sec (  0.300%)

         :::::::::::::::::::::::::::::::::::::::::::::::::::::
         ::                     SUMMARY                     ::
         :::::::::::::::::::::::::::::::::::::::::::::::::::::
         :: total energy            -117.266577038739 Eh    ::
         :: gradient norm              3.899950645001 Eh/a0 ::
         :: HOMO-LUMO gap              0.323669388047 eV    ::
         ::.................................................::
         :: SCC energy              -123.516067104498 Eh    ::
         :: -> isotropic ES            0.111689742142 Eh    ::
         :: -> anisotropic ES          0.036927407067 Eh    ::
         :: -> anisotropic XC          0.060140922618 Eh    ::
         :: -> dispersion             -0.114787186324 Eh    ::
         :: repulsion energy           1.883209627832 Eh    ::
         :: add. restraining           4.363836988174 Eh    ::
         :: total charge              -1.000000000000 e     ::
         :::::::::::::::::::::::::::::::::::::::::::::::::::::

      ----------------------------------------------------------- 
     |                   =====================                   |
     |                        A N C O P T                        |
     |                   =====================                   |
     |               Approximate Normal Coordinate               |
     |                Rational Function Optimizer                |
      ----------------------------------------------------------- 

          ...................................................
          :                      SETUP                      :
          :.................................................:
          :   optimization level            normal          :
          :   max. optcycles                   231          :
          :   ANC micro-cycles                  20          :
          :   degrees of freedom               225          :
          :.................................................:
          :   RF solver                   davidson          :
          :   write xtbopt.log                true          :
          :   linear?                        false          :
          :   energy convergence         0.5000000E-05 Eh   :
          :   grad. convergence          0.1000000E-02 Eh/α :
          :   maximium RF displ.         1.0000000          :
          :   Hlow (freq-cutoff)         0.1000000E-01      :
          :   Hmax (freq-cutoff)         5.0000000          :
          :   S6 in model hess.         20.0000000          :
          ...................................................

generating ANC from model Hessian ...
Using Lindh-Hessian (1995)
 Shifting diagonal of input Hessian by   0.11348998650432270     
 Lowest  eigenvalues of input Hessian
    0.010000    0.053513    0.084974    0.109311    0.112242    0.113471
    0.000000    0.000000    0.000000    0.000000    0.000000    0.000000
    0.113658    0.113801    0.113857    0.113968    0.114159    0.114261
 Highest eigenvalues
    2.172640    2.246463    2.264034    3.403234    3.953922    4.896437


........................................................................
.............................. CYCLE    1 ..............................
........................................................................
   1   -123.5160671 -0.123516E+03  0.297E-04    0.32       0.0  T
   2   -123.5160671  0.623928E-09  0.263E-04    0.32      43.4  T
   3   -123.5160671 -0.615898E-10  0.259E-04    0.32      44.1  T
     SCC iter.                  ...        0 min,  0.026 sec
     gradient                   ...        0 min,  0.082 sec
 * total energy  :  -117.2665770 Eh     change       -0.8581935E-09 Eh
   gradient norm :     3.8999484 Eh/α   predicted     0.0000000E+00 (-100.00%)
   displ. norm   :     0.7076057 α      lambda       -0.2687985E+01
   maximum displ.:     0.4165251 α      in ANC's #224, #222, #223, ...

........................................................................
.............................. CYCLE    2 ..............................
........................................................................
   1   -123.4034308 -0.123403E+03  0.101E+00    0.21       0.0  T
   2   -123.4058837 -0.245291E-02  0.856E-01    0.46       1.0  T
   3   -123.4294117 -0.235280E-01  0.482E-01    0.46       1.0  T
   4   -123.4200488  0.936289E-02  0.450E-01    0.18       1.0  T
   5   -123.4321547 -0.121058E-01  0.278E-01    0.38       1.0  T
   6   -123.4353360 -0.318133E-02  0.149E-01    0.30       1.0  T
   7   -123.4354348 -0.988546E-04  0.968E-02    0.24       1.0  T
   8   -123.4354513 -0.164842E-04  0.644E-02    0.19       1.0  T
   9   -123.4357102 -0.258911E-03  0.421E-02    0.27       1.0  T
  10   -123.4357953 -0.850939E-04  0.242E-02    0.24       1.0  T
  11   -123.4358081 -0.127547E-04  0.130E-02    0.24       1.0  T
  12   -123.4358093 -0.126098E-05  0.100E-02    0.23       1.1  T
  13   -123.4358112 -0.187687E-05  0.571E-03    0.23       2.0  T
  14   -123.4358120 -0.746180E-06  0.224E-03    0.23       5.1  T
  15   -123.4358121 -0.124584E-06  0.138E-03    0.23       8.3  T
  16   -123.4358121 -0.444772E-07  0.790E-04    0.23      14.4  T
  17   -123.4358121 -0.101202E-07  0.423E-04    0.23      27.0  T
     SCC iter.                  ...        0 min,  0.141 sec
     gradient                   ...        0 min,  0.081 sec
 * total energy  :  -119.3434271 Eh     change       -0.2076850E+01 Eh
   gradient norm :     1.9839843 Eh/α   predicted    -0.2016937E+01 (  -2.88%)
   displ. norm   :     0.6375881 α      lambda       -0.1161269E+01
   maximum displ.:     0.2634874 α      in ANC's #2, #224, #222, ...

........................................................................
.............................. CYCLE    3 ..............................
........................................................................
   1   -123.2823277 -0.123282E+03  0.118E+00    0.26       0.0  T
   2   -123.2428672  0.394605E-01  0.126E+00    0.23       1.0  T
   3   -123.3278268 -0.849596E-01  0.444E-01    0.22       1.0  T
   4   -123.3287310 -0.904245E-03  0.294E-01    0.19       1.0  T
   5   -123.3295006 -0.769559E-03  0.225E-01    0.17       1.0  T
   6   -123.3297191 -0.218548E-03  0.163E-01    0.33       1.0  T
   7   -123.3312861 -0.156695E-02  0.806E-02    0.17       1.0  T
   8   -123.3313271 -0.410720E-04  0.578E-02    0.23       1.0  T
   9   -123.3314548 -0.127685E-03  0.412E-02    0.17       1.0  T
  10   -123.3315687 -0.113900E-03  0.178E-02    0.19       1.0  T
  11   -123.3315763 -0.758377E-05  0.990E-03    0.19       1.2  T
  12   -123.3315778 -0.147036E-05  0.761E-03    0.19       1.5  T
  13   -123.3315802 -0.241265E-05  0.420E-03    0.19       2.7  T
  14   -123.3315808 -0.606480E-06  0.231E-03    0.19       4.9  T
  15   -123.3315808  0.275498E-07  0.169E-03    0.19       6.8  T
  16   -123.3315810 -0.183496E-06  0.790E-04    0.19      14.4  T
  17   -123.3315810 -0.130966E-07  0.452E-04    0.19      25.2  T
     SCC iter.                  ...        0 min,  0.141 sec
     gradient                   ...        0 min,  0.081 sec
 * total energy  :  -120.0528933 Eh     change       -0.7094662E+00 Eh
   gradient norm :     1.2396584 Eh/α   predicted    -0.8166858E+00 (  15.11%)
   displ. norm   :     0.9036484 α      lambda       -0.9478003E+00
   maximum displ.:     0.7457064 α      in ANC's #2, #3, #224, ...

........................................................................
.............................. CYCLE    4 ..............................
........................................................................
   1   -122.6935439 -0.122694E+03  0.201E+00    0.48       0.0  T
   2   -118.7140081  0.397954E+01  0.438E+00    0.49       1.0  T
   3   -123.1631158 -0.444911E+01  0.129E+00    1.15       1.0  T
   4   -123.2402663 -0.771504E-01  0.845E-01    1.13       1.0  T
   5   -123.2418774 -0.161116E-02  0.740E-01    1.13       1.0  T
   6   -123.2473392 -0.546180E-02  0.571E-01    1.03       1.0  T
   7   -123.2513136 -0.397436E-02  0.447E-01    0.76       1.0  T
   8   -123.2578443 -0.653073E-02  0.300E-01    0.58       1.0  T
   9   -123.2612769 -0.343263E-02  0.262E-01    0.29       1.0  T
  10   -122.8573378  0.403939E+00  0.174E+00    0.10       1.0  T
  11   -123.2643631 -0.407025E+00  0.175E-01    0.23       1.0  T
  12   -123.2641531  0.209976E-03  0.184E-01    0.24       1.0  T
  13   -123.2633702  0.782948E-03  0.214E-01    0.26       1.0  T
  14   -123.2647214 -0.135117E-02  0.197E-01    0.21       1.0  T
  15   -123.2666854 -0.196404E-02  0.150E-01    0.18       1.0  T
  16   -123.2685822 -0.189676E-02  0.739E-02    0.14       1.0  T
  17   -123.2692864 -0.704278E-03  0.914E-03    0.12       1.2  T
  18   -123.2692926 -0.616131E-05  0.445E-03    0.12       2.6  T
  19   -123.2692935 -0.889629E-06  0.510E-03    0.12       2.2  T
  20   -123.2692946 -0.113425E-05  0.208E-03    0.12       5.5  T
  21   -123.2692937  0.966697E-06  0.343E-03    0.12       3.3  T
  22   -123.2692952 -0.154787E-05  0.961E-04    0.12      11.9  T
  23   -123.2692953 -0.767789E-07  0.635E-04    0.12      18.0  T
  24   -123.2692953 -0.829459E-09  0.678E-04    0.12      16.8  T
     SCC iter.                  ...        0 min,  0.198 sec
     gradient                   ...        0 min,  0.081 sec
 * total energy  :  -120.7090921 Eh     change       -0.6561988E+00 Eh
   gradient norm :     1.0049596 Eh/α   predicted    -0.8608784E+00 (  31.19%)
   displ. norm   :     0.8392702 α      lambda       -0.6232806E+00
   maximum displ.:     0.6709696 α      in ANC's #2, #3, #222, ...

........................................................................
.............................. CYCLE    5 ..............................
........................................................................
   1   -122.6564454 -0.122656E+03  0.178E+00    0.39       0.0  T
   2   -118.4817224  0.417472E+01  0.432E+00    0.46       1.0  T
   3   -123.0765003 -0.459478E+01  0.117E+00    1.20       1.0  T
   4   -123.1446263 -0.681260E-01  0.766E-01    1.13       1.0  T
   5   -123.1388066  0.581967E-02  0.726E-01    1.12       1.0  T
   6   -123.1516578 -0.128512E-01  0.570E-01    1.14       1.0  T
   7   -123.1541174 -0.245960E-02  0.505E-01    0.93       1.0  T
   8   -123.1619631 -0.784568E-02  0.323E-01    0.59       1.0  T
   9   -123.1660570 -0.409394E-02  0.265E-01    0.32       1.0  T
  10   -123.1105102  0.555468E-01  0.725E-01    0.02       1.0  T
  11   -123.1671529 -0.566427E-01  0.241E-01    0.29       1.0  T
  12   -123.1675123 -0.359397E-03  0.253E-01    0.29       1.0  T
  13   -123.1671143  0.397990E-03  0.274E-01    0.30       1.0  T
  14   -123.1675845 -0.470186E-03  0.278E-01    0.28       1.0  T
  15   -123.1710306 -0.344610E-02  0.242E-01    0.20       1.0  T
  16   -123.1776338 -0.660316E-02  0.116E-01    0.13       1.0  T
  17   -123.1795286 -0.189477E-02  0.357E-02    0.09       1.0  T
  18   -123.1794410  0.875297E-04  0.435E-02    0.11       1.0  T
  19   -123.1779668  0.147424E-02  0.104E-01    0.08       1.0  T
  20   -123.1794111 -0.144427E-02  0.449E-02    0.11       1.0  T
  21   -123.1796807 -0.269609E-03  0.179E-02    0.10       1.0  T
  22   -123.1796990 -0.183146E-04  0.144E-02    0.10       1.0  T
  23   -123.1797306 -0.316143E-04  0.266E-03    0.10       4.3  T
  24   -123.1797315 -0.856454E-06  0.932E-04    0.10      12.2  T
  25   -123.1797312  0.268775E-06  0.171E-03    0.10       6.7  T
  26   -123.1797316 -0.438979E-06  0.967E-05    0.10     117.8  T
     SCC iter.                  ...        0 min,  0.215 sec
     gradient                   ...        0 min,  0.081 sec
 * total energy  :  -121.1677835 Eh     change       -0.4586914E+00 Eh
   gradient norm :     0.4819138 Eh/α   predicted    -0.5311519E+00 (  15.80%)
   displ. norm   :     0.6015488 α      lambda       -0.2164807E+00
   maximum displ.:     0.3383255 α      in ANC's #2, #3, #222, ...

........................................................................
.............................. CYCLE    6 ..............................
........................................................................
   1   -122.7230328 -0.122723E+03  0.151E+00    0.28       0.0  T
   2   -118.5025116  0.422052E+01  0.419E+00    0.46       1.0  T
   3   -123.0714321 -0.456892E+01  0.104E+00    1.35       1.0  T
   4   -123.1046838 -0.332517E-01  0.837E-01    1.05       1.0  T
   5   -123.1271235 -0.224397E-01  0.636E-01    1.09       1.0  T
   6   -123.1310840 -0.396056E-02  0.577E-01    0.96       1.0  T
   7   -123.1384381 -0.735405E-02  0.476E-01    0.73       1.0  T
   8   -123.1467422 -0.830410E-02  0.322E-01    0.30       1.0  T
   9   -123.1614746 -0.147324E-01  0.270E-01    0.06       1.0  T
  10   -123.1529835  0.849111E-02  0.246E-01    0.21       1.0  T
  11   -123.1647811 -0.117975E-01  0.113E-01    0.12       1.0  T
  12   -123.1677073 -0.292626E-02  0.347E-02    0.09       1.0  T
  13   -123.1669464  0.760902E-03  0.691E-02    0.10       1.0  T
  14   -123.1675576 -0.611185E-03  0.397E-02    0.08       1.0  T
  15   -123.1673975  0.160096E-03  0.563E-02    0.10       1.0  T
  16   -123.1676733 -0.275796E-03  0.331E-02    0.08       1.0  T
  17   -123.1674618  0.211495E-03  0.480E-02    0.10       1.0  T
  18   -123.1678849 -0.423036E-03  0.132E-02    0.09       1.0  T
  19   -123.1679110 -0.261345E-04  0.784E-03    0.09       1.5  T
  20   -123.1679192 -0.819188E-05  0.503E-03    0.09       2.3  T
  21   -123.1679225 -0.331385E-05  0.251E-03    0.09       4.5  T
  22   -123.1679236 -0.114445E-05  0.862E-04    0.09      13.2  T
  23   -123.1679236  0.112098E-07  0.902E-04    0.09      12.6  T
  24   -123.1679238 -0.155392E-06  0.181E-04    0.09      62.8  T
     SCC iter.                  ...        0 min,  0.198 sec
     gradient                   ...        0 min,  0.082 sec
 * total energy  :  -121.3131339 Eh     change       -0.1453504E+00 Eh
   gradient norm :     0.1883700 Eh/α   predicted    -0.1474083E+00 (   1.42%)
   displ. norm   :     0.5424570 α      lambda       -0.7116264E-01
   maximum displ.:     0.2006449 α      in ANC's #1, #2, #50, ...

........................................................................
.............................. CYCLE    7 ..............................
........................................................................
   1   -122.9078985 -0.122908E+03  0.122E+00    0.13       0.0  T
   2   -118.9018609  0.400604E+01  0.394E+00    0.47       1.0  T
   3   -123.0941524 -0.419229E+01  0.115E+00    1.37       1.0  T
   4   -123.1420501 -0.478977E-01  0.874E-01    0.96       1.0  T
   5   -123.1938953 -0.518452E-01  0.574E-01    0.89       1.0  T
   6   -123.1991842 -0.528893E-02  0.489E-01    0.74       1.0  T
   7   -123.2040660 -0.488177E-02  0.416E-01    0.49       1.0  T
   8   -123.2280816 -0.240156E-01  0.152E-01    0.11       1.0  T
   9   -123.0992422  0.128839E+00  0.826E-01    0.04       1.0  T
  10   -123.2116659 -0.112424E+00  0.297E-01    0.24       1.0  T
  11   -123.2134671 -0.180127E-02  0.289E-01    0.21       1.0  T
  12   -123.2193133 -0.584622E-02  0.241E-01    0.16       1.0  T
  13   -123.2263375 -0.702414E-02  0.163E-01    0.12       1.0  T
  14   -123.2322060 -0.586853E-02  0.233E-02    0.09       1.0  T
  15   -123.2318697  0.336333E-03  0.466E-02    0.09       1.0  T
  16   -123.2322556 -0.385920E-03  0.194E-02    0.08       1.0  T
  17   -123.2321830  0.726308E-04  0.249E-02    0.08       1.0  T
  18   -123.2323119 -0.128934E-03  0.916E-03    0.08       1.2  T
  19   -123.2322841  0.278055E-04  0.143E-02    0.08       1.0  T
  20   -123.2323249 -0.408247E-04  0.210E-03    0.08       5.4  T
  21   -123.2323257 -0.759358E-06  0.932E-04    0.08      12.2  T
  22   -123.2323258 -0.154520E-06  0.334E-04    0.08      34.1  T
     SCC iter.                  ...        0 min,  0.183 sec
     gradient                   ...        0 min,  0.082 sec
 * total energy  :  -121.3651281 Eh     change       -0.5199423E-01 Eh
   gradient norm :     0.0973881 Eh/α   predicted    -0.4605145E-01 ( -11.43%)
   displ. norm   :     0.6304324 α      lambda       -0.4865864E-01
   maximum displ.:     0.2468746 α      in ANC's #50, #1, #54, ...

........................................................................
.............................. CYCLE    8 ..............................
........................................................................
   1   -123.2879933 -0.123288E+03  0.444E-01    0.03       0.0  T
   2   -123.2371832  0.508100E-01  0.778E-01    1.52       1.0  T
   3   -123.2887310 -0.515478E-01  0.453E-01    0.66       1.0  T
   4   -123.2907724 -0.204140E-02  0.444E-01    0.32       1.0  T
   5   -123.3062605 -0.154882E-01  0.296E-01    0.16       1.0  T
   6   -122.9159980  0.390263E+00  0.137E+00    0.28       1.0  T
   7   -123.2963042 -0.380306E+00  0.346E-01    0.28       1.0  T
   8   -123.3100495 -0.137454E-01  0.221E-01    0.14       1.0  T
   9   -123.3202367 -0.101872E-01  0.233E-02    0.08       1.0  T
  10   -123.3189103  0.132641E-02  0.807E-02    0.10       1.0  T
  11   -123.3202739 -0.136354E-02  0.885E-03    0.08       1.3  T
  12   -123.3202786 -0.469764E-05  0.495E-03    0.08       2.3  T
  13   -123.3202780  0.591872E-06  0.437E-03    0.08       2.6  T
  14   -123.3201855  0.924340E-04  0.210E-02    0.08       1.0  T
  15   -123.3202697 -0.842189E-04  0.706E-03    0.08       1.6  T
  16   -123.3202801 -0.104035E-04  0.527E-04    0.08      21.6  T
  17   -123.3202792  0.921727E-06  0.208E-03    0.08       5.5  T
  18   -123.3202801 -0.887878E-06  0.459E-04    0.08      24.8  T
  19   -123.3202800  0.118174E-06  0.858E-04    0.08      13.3  T
     SCC iter.                  ...        0 min,  0.157 sec
     gradient                   ...        0 min,  0.082 sec
 * total energy  :  -121.4019061 Eh     change       -0.3677800E-01 Eh
   gradient norm :     0.1138894 Eh/α   predicted    -0.3399895E-01 (  -7.56%)
   displ. norm   :     0.6808211 α      lambda       -0.4033643E-01
   maximum displ.:     0.2792054 α      in ANC's #50, #1, #48, ...

........................................................................
.............................. CYCLE    9 ..............................
........................................................................
   1   -123.4021224 -0.123402E+03  0.300E-01    0.12       0.0  T
   2   -122.9754073  0.426715E+00  0.144E+00    0.44       1.0  T
   3   -123.3859809 -0.410574E+00  0.369E-01    0.20       1.0  T
   4   -123.3929377 -0.695681E-02  0.289E-01    0.14       1.0  T
   5   -123.4044622 -0.115245E-01  0.149E-01    0.07       1.0  T
   6   -123.4070748 -0.261262E-02  0.289E-02    0.08       1.0  T
   7   -123.4071027 -0.278913E-04  0.188E-02    0.08       1.0  T
   8   -123.4070028  0.998596E-04  0.250E-02    0.07       1.0  T
   9   -123.4069756  0.272267E-04  0.273E-02    0.08       1.0  T
  10   -123.4071220 -0.146411E-03  0.611E-03    0.08       1.9  T
  11   -123.4071252 -0.319497E-05  0.374E-03    0.08       3.0  T
  12   -123.4071270 -0.175224E-05  0.165E-03    0.08       6.9  T
  13   -123.4071268  0.195236E-06  0.164E-03    0.08       6.9  T
  14   -123.4071272 -0.379749E-06  0.758E-04    0.08      15.0  T
  15   -123.4071272 -0.218594E-07  0.593E-04    0.08      19.2  T
     SCC iter.                  ...        0 min,  0.125 sec
     gradient                   ...        0 min,  0.082 sec
 * total energy  :  -121.4345706 Eh     change       -0.3266445E-01 Eh
   gradient norm :     0.0936648 Eh/α   predicted    -0.2951655E-01 (  -9.64%)
   displ. norm   :     0.6970267 α      lambda       -0.3519381E-01
   maximum displ.:     0.2914330 α      in ANC's #50, #1, #48, ...

........................................................................
.............................. CYCLE   10 ..............................
........................................................................
   1   -123.4574069 -0.123457E+03  0.408E-01    0.23       0.0  T
   2   -122.9789721  0.478435E+00  0.161E+00    0.57       1.0  T
   3   -123.4630807 -0.484109E+00  0.326E-01    0.15       1.0  T
   4   -123.4670984 -0.401764E-02  0.252E-01    0.06       1.0  T
   5   -123.4748182 -0.771984E-02  0.755E-02    0.08       1.0  T
   6   -123.4733667  0.145155E-02  0.975E-02    0.11       1.0  T
   7   -123.4740910 -0.724385E-03  0.753E-02    0.07       1.0  T
   8   -123.4744465 -0.355431E-03  0.616E-02    0.10       1.0  T
   9   -123.4749536 -0.507163E-03  0.348E-02    0.08       1.0  T
  10   -123.4751642 -0.210578E-03  0.136E-02    0.09       1.0  T
  11   -123.4751955 -0.312352E-04  0.428E-03    0.08       2.7  T
  12   -123.4751845  0.109878E-04  0.834E-03    0.08       1.4  T
  13   -123.4751982 -0.137292E-04  0.998E-04    0.08      11.4  T
  14   -123.4751983 -0.563546E-07  0.541E-04    0.08      21.0  T
  15   -123.4751980  0.223561E-06  0.111E-03    0.08      10.2  T
  16   -123.4751983 -0.236406E-06  0.248E-04    0.08      46.0  T
     SCC iter.                  ...        0 min,  0.133 sec
     gradient                   ...        0 min,  0.082 sec
 * total energy  :  -121.4629187 Eh     change       -0.2834816E-01 Eh
   gradient norm :     0.0890871 Eh/α   predicted    -0.2614631E-01 (  -7.77%)
   displ. norm   :     0.7131526 α      lambda       -0.2944298E-01
   maximum displ.:     0.3762860 α      in ANC's #1, #50, #48, ...

........................................................................
.............................. CYCLE   11 ..............................
........................................................................
   1   -123.5056298 -0.123506E+03  0.358E-01    0.04       0.0  T
   2   -123.4787719  0.268579E-01  0.534E-01    0.97       1.0  T
   3   -123.4999029 -0.211311E-01  0.372E-01    0.32       1.0  T
   4   -123.5167809 -0.168780E-01  0.153E-01    0.07       1.0  T
   5   -123.4423068  0.744741E-01  0.614E-01    0.01       1.0  T
   6   -123.5056143 -0.633075E-01  0.260E-01    0.18       1.0  T
   7   -123.5108447 -0.523042E-02  0.201E-01    0.14       1.0  T
   8   -123.5161491 -0.530443E-02  0.109E-01    0.06       1.0  T
   9   -123.5183406 -0.219146E-02  0.234E-02    0.09       1.0  T
  10   -123.5184145 -0.739263E-04  0.111E-02    0.08       1.0  T
  11   -123.5179671  0.447400E-03  0.491E-02    0.09       1.0  T
  12   -123.5184302 -0.463031E-03  0.286E-03    0.08       4.0  T
  13   -123.5184273  0.282600E-05  0.452E-03    0.08       2.5  T
  14   -123.5184257  0.160133E-05  0.535E-03    0.08       2.1  T
  15   -123.5184299 -0.417395E-05  0.260E-03    0.08       4.4  T
  16   -123.5184303 -0.442837E-06  0.213E-03    0.08       5.3  T
  17   -123.5184309 -0.557989E-06  0.127E-03    0.08       9.0  T
  18   -123.5184312 -0.259677E-06  0.484E-04    0.08      23.5  T
  19   -123.5184312 -0.387243E-07  0.159E-04    0.08      71.6  T
     SCC iter.                  ...        0 min,  0.158 sec
     gradient                   ...        0 min,  0.082 sec
 * total energy  :  -121.4884522 Eh     change       -0.2553349E-01 Eh
   gradient norm :     0.1295065 Eh/α   predicted    -0.2220866E-01 ( -13.02%)
   displ. norm   :     0.7894679 α      lambda       -0.3969859E-01
   maximum displ.:     0.2773954 α      in ANC's #50, #48, #25, ...

........................................................................
.............................. CYCLE   12 ..............................
........................................................................
   1   -123.5341949 -0.123534E+03  0.497E-01    0.36       0.0  T
   2   -123.0186179  0.515577E+00  0.177E+00    0.60       1.0  T
   3   -123.5392747 -0.520657E+00  0.339E-01    0.21       1.0  T
   4   -123.4805747  0.587000E-01  0.649E-01    0.00       1.0  T
   5   -123.5465303 -0.659556E-01  0.189E-01    0.14       1.0  T
   6   -123.5506821 -0.415179E-02  0.681E-02    0.10       1.0  T
   7   -123.5474421  0.324002E-02  0.145E-01    0.06       1.0  T
   8   -123.5499149 -0.247283E-02  0.875E-02    0.11       1.0  T
   9   -123.5509125 -0.997576E-03  0.440E-02    0.10       1.0  T
  10   -123.5508933  0.191868E-04  0.455E-02    0.08       1.0  T
  11   -123.5512613 -0.368020E-03  0.562E-03    0.09       2.0  T
  12   -123.5512580  0.331923E-05  0.641E-03    0.09       1.8  T
  13   -123.5512504  0.762686E-05  0.883E-03    0.09       1.3  T
  14   -123.5512635 -0.130909E-04  0.140E-03    0.09       8.1  T
  15   -123.5512636 -0.113263E-06  0.640E-04    0.09      17.8  T
  16   -123.5512631  0.454077E-06  0.161E-03    0.09       7.1  T
  17   -123.5512636 -0.458769E-06  0.263E-04    0.09      43.4  T
     SCC iter.                  ...        0 min,  0.141 sec
     gradient                   ...        0 min,  0.083 sec
 * total energy  :  -121.5177408 Eh     change       -0.2928855E-01 Eh
   gradient norm :     0.1386672 Eh/α   predicted    -0.3222057E-01 (  10.01%)
   displ. norm   :     0.7801558 α      lambda       -0.4156859E-01
   maximum displ.:     0.4947527 α      in ANC's #1, #50, #25, ...

........................................................................
.............................. CYCLE   13 ..............................
........................................................................
   1   -123.1627412 -0.123163E+03  0.146E+00    0.18       0.0  T
   2   -121.5918396  0.157090E+01  0.301E+00    0.44       1.0  T
   3   -123.4753001 -0.188346E+01  0.993E-01    1.54       1.0  T
   4   -123.5159893 -0.406892E-01  0.643E-01    1.21       1.0  T
   5   -123.5269462 -0.109570E-01  0.538E-01    1.00       1.0  T
   6   -123.5319180 -0.497176E-02  0.437E-01    0.65       1.0  T
   7   -123.5438421 -0.119241E-01  0.284E-01    0.18       1.0  T
   8   -123.1619806  0.381861E+00  0.146E+00    0.19       1.0  T
   9   -123.5394952 -0.377515E+00  0.313E-01    0.23       1.0  T
  10   -123.5386740  0.821272E-03  0.321E-01    0.25       1.0  T
  11   -123.5410184 -0.234442E-02  0.298E-01    0.21       1.0  T
  12   -123.5462593 -0.524096E-02  0.243E-01    0.16       1.0  T
  13   -123.5545741 -0.831475E-02  0.116E-01    0.11       1.0  T
  14   -123.5569708 -0.239670E-02  0.146E-02    0.08       1.0  T
  15   -123.5560441  0.926723E-03  0.726E-02    0.10       1.0  T
  16   -123.5569342 -0.890147E-03  0.211E-02    0.09       1.0  T
  17   -123.5570036 -0.694169E-04  0.627E-03    0.08       1.8  T
  18   -123.5569949  0.872604E-05  0.951E-03    0.08       1.2  T
  19   -123.5569609  0.339698E-04  0.163E-02    0.08       1.0  T
  20   -123.5570032 -0.422906E-04  0.647E-03    0.08       1.8  T
  21   -123.5570098 -0.661178E-05  0.266E-03    0.08       4.3  T
  22   -123.5570112 -0.131354E-05  0.448E-04    0.08      25.4  T
  23   -123.5570110  0.169509E-06  0.105E-03    0.08      10.9  T
  24   -123.5570110  0.157814E-07  0.108E-03    0.08      10.6  T
  25   -123.5570112 -0.220689E-06  0.431E-05    0.08     264.6  T
  26   -123.5570112  0.349506E-07  0.431E-04    0.08      26.5  T
     SCC iter.                  ...        0 min,  0.215 sec
     gradient                   ...        0 min,  0.082 sec
 * total energy  :  -121.5517799 Eh     change       -0.3403912E-01 Eh
   gradient norm :     0.1378093 Eh/α   predicted    -0.3343454E-01 (  -1.78%)
   displ. norm   :     0.6742072 α      lambda       -0.4228997E-01
   maximum displ.:     0.2074398 α      in ANC's #1, #25, #50, ...

........................................................................
.............................. CYCLE   14 ..............................
........................................................................
   1   -123.5663485 -0.123566E+03  0.249E-01    0.08       0.0  T
   2   -123.5659490  0.399539E-03  0.189E-01    0.07       1.0  T
   3   -123.5506820  0.152670E-01  0.313E-01    0.20       1.0  T
   4   -123.2564837  0.294198E+00  0.127E+00    0.10       1.0  T
   5   -123.5532478 -0.296764E+00  0.266E-01    0.18       1.0  T
   6   -123.5597060 -0.645819E-02  0.199E-01    0.14       1.0  T
   7   -123.5657547 -0.604872E-02  0.888E-02    0.10       1.0  T
   8   -123.5665711 -0.816328E-03  0.594E-02    0.07       1.0  T
   9   -123.5671253 -0.554245E-03  0.241E-02    0.08       1.0  T
  10   -123.5671714 -0.460772E-04  0.167E-02    0.08       1.0  T
  11   -123.5672091 -0.376790E-04  0.913E-03    0.08       1.2  T
  12   -123.5672192 -0.101078E-04  0.476E-03    0.08       2.4  T
  13   -123.5672224 -0.323375E-05  0.212E-03    0.08       5.4  T
  14   -123.5672224  0.106429E-07  0.196E-03    0.08       5.8  T
  15   -123.5672223  0.937486E-07  0.200E-03    0.08       5.7  T
  16   -123.5672229 -0.640840E-06  0.705E-04    0.08      16.2  T
  17   -123.5672230 -0.805705E-07  0.220E-04    0.08      51.9  T
     SCC iter.                  ...        0 min,  0.142 sec
     gradient                   ...        0 min,  0.082 sec
 * total energy  :  -121.5868104 Eh     change       -0.3503052E-01 Eh
   gradient norm :     0.1202339 Eh/α   predicted    -0.3075660E-01 ( -12.20%)
   displ. norm   :     0.6749181 α      lambda       -0.3833508E-01
   maximum displ.:     0.1657821 α      in ANC's #25, #3, #47, ...

........................................................................
.............................. CYCLE   15 ..............................
........................................................................
   1   -123.5845142 -0.123585E+03  0.374E-01    0.26       0.0  T
   2   -123.0854247  0.499090E+00  0.169E+00    0.70       1.0  T
   3   -123.5788799 -0.493455E+00  0.390E-01    0.03       1.0  T
   4   -123.5863777 -0.749785E-02  0.303E-01    0.23       1.0  T
   5   -123.5924600 -0.608225E-02  0.234E-01    0.17       1.0  T
   6   -123.6030422 -0.105823E-01  0.277E-02    0.09       1.0  T
   7   -123.6030029  0.393582E-04  0.291E-02    0.08       1.0  T
   8   -123.6026168  0.386039E-03  0.518E-02    0.08       1.0  T
   9   -123.6030217 -0.404919E-03  0.213E-02    0.09       1.0  T
  10   -123.6030215  0.209826E-06  0.212E-02    0.08       1.0  T
  11   -123.6030751 -0.535935E-04  0.119E-02    0.09       1.0  T
  12   -123.6029801  0.950693E-04  0.252E-02    0.08       1.0  T
  13   -123.6031011 -0.121067E-03  0.336E-03    0.08       3.4  T
  14   -123.6031030 -0.187181E-05  0.727E-04    0.08      15.7  T
  15   -123.6031026  0.391792E-06  0.144E-03    0.09       7.9  T
  16   -123.6031028 -0.194098E-06  0.106E-03    0.08      10.7  T
  17   -123.6031030 -0.156756E-06  0.535E-04    0.09      21.3  T
  18   -123.6031030 -0.551198E-07  0.593E-05    0.08     192.1  T
     SCC iter.                  ...        0 min,  0.150 sec
     gradient                   ...        0 min,  0.083 sec
 * total energy  :  -121.6143223 Eh     change       -0.2751189E-01 Eh
   gradient norm :     0.0811333 Eh/α   predicted    -0.2789866E-01 (   1.41%)
   displ. norm   :     0.6158545 α      lambda       -0.2232209E-01
   maximum displ.:     0.1861355 α      in ANC's #3, #25, #50, ...

........................................................................
.............................. CYCLE   16 ..............................
........................................................................
   1   -123.6425611 -0.123643E+03  0.250E-01    0.12       0.0  T
   2   -123.1803187  0.462242E+00  0.153E+00    0.42       1.0  T
   3   -123.6356923 -0.455374E+00  0.279E-01    0.18       1.0  T
   4   -123.6389313 -0.323905E-02  0.222E-01    0.14       1.0  T
   5   -123.6456921 -0.676076E-02  0.853E-02    0.11       1.0  T
   6   -123.6470069 -0.131480E-02  0.157E-02    0.09       1.0  T
   7   -123.6469985  0.841606E-05  0.134E-02    0.08       1.0  T
   8   -123.6467472  0.251223E-03  0.372E-02    0.09       1.0  T
   9   -123.6470116 -0.264323E-03  0.481E-03    0.09       2.4  T
  10   -123.6470033  0.830505E-05  0.760E-03    0.09       1.5  T
  11   -123.6470098 -0.658081E-05  0.423E-03    0.09       2.7  T
  12   -123.6470128 -0.292894E-05  0.110E-03    0.09      10.3  T
  13   -123.6470128 -0.432805E-07  0.793E-04    0.09      14.4  T
  14   -123.6470128 -0.224382E-07  0.565E-04    0.09      20.2  T
     SCC iter.                  ...        0 min,  0.117 sec
     gradient                   ...        0 min,  0.083 sec
 * total energy  :  -121.6311865 Eh     change       -0.1686421E-01 Eh
   gradient norm :     0.0703251 Eh/α   predicted    -0.1539419E-01 (  -8.72%)
   displ. norm   :     0.5546508 α      lambda       -0.1921091E-01
   maximum displ.:     0.2232834 α      in ANC's #3, #25, #30, ...

........................................................................
.............................. CYCLE   17 ..............................
........................................................................
   1   -123.6783429 -0.123678E+03  0.332E-01    0.25       0.0  T
   2   -123.1669533  0.511390E+00  0.166E+00    0.72       1.0  T
   3   -123.6875227 -0.520569E+00  0.206E-01    0.15       1.0  T
   4   -123.6916622 -0.413949E-02  0.110E-01    0.08       1.0  T
   5   -123.6929760 -0.131382E-02  0.331E-02    0.09       1.0  T
   6   -123.6930776 -0.101622E-03  0.143E-02    0.09       1.0  T
   7   -123.6930865 -0.886898E-05  0.866E-03    0.09       1.3  T
   8   -123.6930831  0.340569E-05  0.767E-03    0.09       1.5  T
   9   -123.6930857 -0.263147E-05  0.418E-03    0.09       2.7  T
  10   -123.6930859 -0.140182E-06  0.351E-03    0.09       3.2  T
  11   -123.6930840  0.188007E-05  0.455E-03    0.09       2.5  T
  12   -123.6930877 -0.370106E-05  0.121E-03    0.09       9.4  T
  13   -123.6930879 -0.238237E-06  0.306E-04    0.09      37.3  T
  14   -123.6930879  0.444591E-07  0.511E-04    0.09      22.3  T
     SCC iter.                  ...        0 min,  0.117 sec
     gradient                   ...        0 min,  0.083 sec
 * total energy  :  -121.6439177 Eh     change       -0.1273117E-01 Eh
   gradient norm :     0.0532587 Eh/α   predicted    -0.1256050E-01 (  -1.34%)
   displ. norm   :     0.6735233 α      lambda       -0.1442696E-01
   maximum displ.:     0.2155827 α      in ANC's #25, #1, #3, ...

........................................................................
.............................. CYCLE   18 ..............................
........................................................................
   1   -123.7057543 -0.123706E+03  0.318E-01    0.17       0.0  T
   2   -123.1953488  0.510406E+00  0.163E+00    0.60       1.0  T
   3   -123.7022005 -0.506852E+00  0.293E-01    0.22       1.0  T
   4   -123.7054606 -0.326017E-02  0.229E-01    0.18       1.0  T
   5   -123.7115862 -0.612552E-02  0.117E-01    0.13       1.0  T
   6   -123.7138194 -0.223328E-02  0.411E-02    0.09       1.0  T
   7   -123.7140638 -0.244389E-03  0.161E-02    0.10       1.0  T
   8   -123.7140131  0.507788E-04  0.191E-02    0.10       1.0  T
   9   -123.7140659 -0.528208E-04  0.535E-03    0.10       2.1  T
  10   -123.7140426  0.232772E-04  0.117E-02    0.10       1.0  T
  11   -123.7140663 -0.236534E-04  0.161E-03    0.10       7.1  T
  12   -123.7140657  0.580695E-06  0.228E-03    0.10       5.0  T
  13   -123.7140664 -0.752501E-06  0.767E-04    0.10      14.9  T
  14   -123.7140665 -0.367269E-07  0.372E-04    0.10      30.6  T
     SCC iter.                  ...        0 min,  0.117 sec
     gradient                   ...        0 min,  0.083 sec
 * total energy  :  -121.6528670 Eh     change       -0.8949304E-02 Eh
   gradient norm :     0.0806808 Eh/α   predicted    -0.1048576E-01 (  17.17%)
   displ. norm   :     0.5091846 α      lambda       -0.1110732E-01
   maximum displ.:     0.2309105 α      in ANC's #3, #25, #30, ...

........................................................................
.............................. CYCLE   19 ..............................
........................................................................
   1   -123.7067051 -0.123707E+03  0.266E-01    0.26       0.0  T
   2   -123.1749674  0.531738E+00  0.169E+00    0.62       1.0  T
   3   -123.7118439 -0.536877E+00  0.174E-01    0.17       1.0  T
   4   -123.7085497  0.329421E-02  0.209E-01    0.06       1.0  T
   5   -123.7163961 -0.784638E-02  0.388E-02    0.10       1.0  T
   6   -123.7166103 -0.214225E-03  0.158E-02    0.11       1.0  T
   7   -123.7166217 -0.113828E-04  0.117E-02    0.11       1.0  T
   8   -123.7166309 -0.917123E-05  0.619E-03    0.10       1.8  T
   9   -123.7166341 -0.320285E-05  0.245E-03    0.10       4.7  T
  10   -123.7166327  0.141901E-05  0.330E-03    0.10       3.5  T
  11   -123.7166342 -0.155947E-05  0.945E-04    0.10      12.1  T
  12   -123.7166343 -0.257156E-07  0.595E-04    0.10      19.1  T
  13   -123.7166343 -0.874837E-08  0.340E-04    0.10      33.5  T
     SCC iter.                  ...        0 min,  0.109 sec
     gradient                   ...        0 min,  0.083 sec
 * total energy  :  -121.6611105 Eh     change       -0.8243544E-02 Eh
   gradient norm :     0.0622752 Eh/α   predicted    -0.6993553E-02 ( -15.16%)
   displ. norm   :     0.6018642 α      lambda       -0.1127187E-01
   maximum displ.:     0.2608022 α      in ANC's #3, #25, #30, ...

........................................................................
.............................. CYCLE   20 ..............................
........................................................................
   1   -123.7062575 -0.123706E+03  0.225E-01    0.19       0.0  T
   2   -123.1813440  0.524914E+00  0.167E+00    0.43       1.0  T
   3   -123.7093847 -0.528041E+00  0.135E-01    0.15       1.0  T
   4   -123.7107126 -0.132795E-02  0.656E-02    0.10       1.0  T
   5   -123.7113303 -0.617702E-03  0.228E-02    0.10       1.0  T
   6   -123.7113652 -0.348896E-04  0.167E-02    0.11       1.0  T
   7   -123.7113537  0.115236E-04  0.171E-02    0.11       1.0  T
   8   -123.7113925 -0.388106E-04  0.537E-03    0.11       2.1  T
   9   -123.7113950 -0.247823E-05  0.223E-03    0.11       5.1  T
  10   -123.7113949  0.110038E-06  0.190E-03    0.11       6.0  T
  11   -123.7113951 -0.169389E-06  0.119E-03    0.11       9.6  T
  12   -123.7113951 -0.132956E-07  0.942E-04    0.11      12.1  T
  13   -123.7113952 -0.110905E-06  0.285E-04    0.11      40.0  T
     SCC iter.                  ...        0 min,  0.109 sec
     gradient                   ...        0 min,  0.083 sec
 * total energy  :  -121.6694882 Eh     change       -0.8377683E-02 Eh
   gradient norm :     0.0419835 Eh/α   predicted    -0.7677506E-02 (  -8.36%)
   displ. norm   :     0.6049916 α      lambda       -0.8474759E-02
   maximum displ.:     0.2284369 α      in ANC's #25, #3, #32, ...
 * RMSD in coord.:     1.0333866 α      energy gain  -0.4402911E+01 Eh

generating ANC from model Hessian ...
Using Lindh-Hessian (1995)
 Shifting diagonal of input Hessian by    1.1005706095103767E-002
 Lowest  eigenvalues of input Hessian
    0.010000    0.000000    0.000000    0.000000    0.000000    0.000000
    0.000000    0.011041    0.011119    0.011261    0.011364    0.011589
    0.011621    0.011726    0.011844    0.011921    0.012518    0.012605
 Highest eigenvalues
    2.194149    2.244342    2.294607    3.088121    4.060112    4.398216


........................................................................
.............................. CYCLE   21 ..............................
........................................................................
   1   -123.7006783 -0.123701E+03  0.227E-01    0.28       0.0  T
   2   -123.1520987  0.548580E+00  0.171E+00    0.41       1.0  T
   3   -123.7027729 -0.550674E+00  0.161E-01    0.20       1.0  T
   4   -123.7061981 -0.342520E-02  0.570E-02    0.11       1.0  T
   5   -123.7049976  0.120043E-02  0.885E-02    0.10       1.0  T
   6   -123.7064132 -0.141561E-02  0.140E-02    0.12       1.0  T
   7   -123.7063702  0.430486E-04  0.185E-02    0.13       1.0  T
   8   -123.7064116 -0.413600E-04  0.103E-02    0.12       1.1  T
   9   -123.7064062  0.531311E-05  0.102E-02    0.12       1.1  T
  10   -123.7064203 -0.140746E-04  0.463E-03    0.12       2.5  T
  11   -123.7064234 -0.303487E-05  0.161E-03    0.12       7.1  T
  12   -123.7064236 -0.213380E-06  0.783E-04    0.12      14.5  T
  13   -123.7064236 -0.284035E-08  0.623E-04    0.12      18.3  T
     SCC iter.                  ...        0 min,  0.109 sec
     gradient                   ...        0 min,  0.084 sec
 * total energy  :  -121.6760900 Eh     change       -0.6601768E-02 Eh
   gradient norm :     0.0375488 Eh/α   predicted     0.0000000E+00 (-100.00%)
   displ. norm   :     0.5271531 α      lambda       -0.8228970E-02
   maximum displ.:     0.2189730 α      in ANC's #18, #17, #8, ...

........................................................................
.............................. CYCLE   22 ..............................
........................................................................
   1   -123.7163663 -0.123716E+03  0.197E-01    0.25       0.0  T
   2   -123.1592421  0.557124E+00  0.172E+00    0.32       1.0  T
   3   -123.7183907 -0.559149E+00  0.130E-01    0.19       1.0  T
   4   -123.7202421 -0.185141E-02  0.593E-02    0.14       1.0  T
   5   -123.7203871 -0.144991E-03  0.301E-02    0.12       1.0  T
   6   -123.7205235 -0.136408E-03  0.111E-02    0.13       1.0  T
   7   -123.7204988  0.246541E-04  0.149E-02    0.13       1.0  T
   8   -123.7205071 -0.827757E-05  0.125E-02    0.13       1.0  T
   9   -123.7205224 -0.153267E-04  0.718E-03    0.13       1.6  T
  10   -123.7205308 -0.836098E-05  0.154E-03    0.13       7.4  T
  11   -123.7205309 -0.106330E-06  0.101E-03    0.13      11.3  T
  12   -123.7205308  0.929560E-07  0.101E-03    0.13      11.3  T
  13   -123.7205308  0.274003E-07  0.970E-04    0.13      11.7  T
  14   -123.7205309 -0.137247E-06  0.384E-04    0.13      29.7  T
     SCC iter.                  ...        0 min,  0.117 sec
     gradient                   ...        0 min,  0.083 sec
 * total energy  :  -121.6833496 Eh     change       -0.7259610E-02 Eh
   gradient norm :     0.0179842 Eh/α   predicted    -0.5317918E-02 ( -26.75%)
   displ. norm   :     0.7983613 α      lambda       -0.9578960E-02
   maximum displ.:     0.3459275 α      in ANC's #18, #17, #8, ...

........................................................................
.............................. CYCLE   23 ..............................
........................................................................
   1   -123.7288504 -0.123729E+03  0.228E-01    0.36       0.0  T
   2   -123.1778488  0.551002E+00  0.172E+00    0.19       1.0  T
   3   -123.7299018 -0.552053E+00  0.159E-01    0.29       1.0  T
   4   -123.7305402 -0.638368E-03  0.116E-01    0.21       1.0  T
   5   -123.7319603 -0.142008E-02  0.484E-02    0.17       1.0  T
   6   -123.7321935 -0.233265E-03  0.296E-02    0.16       1.0  T
   7   -123.7322516 -0.580806E-04  0.189E-02    0.15       1.0  T
   8   -123.7323000 -0.483317E-04  0.701E-03    0.15       1.6  T
   9   -123.7323016 -0.161482E-05  0.388E-03    0.15       2.9  T
  10   -123.7323008  0.807338E-06  0.313E-03    0.14       3.6  T
  11   -123.7323011 -0.305382E-06  0.249E-03    0.14       4.6  T
  12   -123.7323019 -0.850246E-06  0.746E-04    0.15      15.3  T
  13   -123.7323017  0.265336E-06  0.131E-03    0.15       8.7  T
  14   -123.7323018 -0.182066E-06  0.841E-04    0.15      13.5  T
     SCC iter.                  ...        0 min,  0.117 sec
     gradient                   ...        0 min,  0.083 sec
 * total energy  :  -121.6914048 Eh     change       -0.8055198E-02 Eh
   gradient norm :     0.0253088 Eh/α   predicted    -0.7842217E-02 (  -2.64%)
   displ. norm   :     0.7970146 α      lambda       -0.7077856E-02
   maximum displ.:     0.3524164 α      in ANC's #18, #17, #14, ...

........................................................................
.............................. CYCLE   24 ..............................
........................................................................
   1   -123.7368377 -0.123737E+03  0.185E-01    0.34       0.0  T
   2   -123.4418107  0.295027E+00  0.127E+00    0.05       1.0  T
   3   -123.7373255 -0.295515E+00  0.126E-01    0.30       1.0  T
   4   -123.7375265 -0.200974E-03  0.925E-02    0.24       1.0  T
   5   -123.7380989 -0.572397E-03  0.553E-02    0.21       1.0  T
   6   -123.7382905 -0.191583E-03  0.429E-02    0.20       1.0  T
   7   -123.7383995 -0.109051E-03  0.317E-02    0.19       1.0  T
   8   -123.7385295 -0.129943E-03  0.152E-02    0.18       1.0  T
   9   -123.7385610 -0.315391E-04  0.487E-03    0.17       2.3  T
  10   -123.7385619 -0.919722E-06  0.348E-03    0.17       3.3  T
  11   -123.7385621 -0.117604E-06  0.308E-03    0.17       3.7  T
  12   -123.7385634 -0.137058E-05  0.989E-04    0.17      11.5  T
  13   -123.7385631  0.289919E-06  0.154E-03    0.17       7.4  T
  14   -123.7385633 -0.179946E-06  0.116E-03    0.17       9.8  T
  15   -123.7385634 -0.123825E-06  0.782E-04    0.17      14.6  T
  16   -123.7385635 -0.799381E-07  0.379E-04    0.17      30.1  T
     SCC iter.                  ...        0 min,  0.134 sec
     gradient                   ...        0 min,  0.084 sec
 * total energy  :  -121.6975258 Eh     change       -0.6121032E-02 Eh
   gradient norm :     0.0265028 Eh/α   predicted    -0.5787087E-02 (  -5.46%)
   displ. norm   :     0.7959315 α      lambda       -0.5962757E-02
   maximum displ.:     0.3468146 α      in ANC's #18, #14, #8, ...

........................................................................
.............................. CYCLE   25 ..............................
........................................................................
   1   -123.7446704 -0.123745E+03  0.150E-01    0.32       0.0  T
   2   -123.7190977  0.255727E-01  0.389E-01    0.07       1.0  T
   3   -123.7447216 -0.256239E-01  0.971E-02    0.31       1.0  T
   4   -123.7449653 -0.243751E-03  0.593E-02    0.25       1.0  T
   5   -123.7451276 -0.162337E-03  0.408E-02    0.24       1.0  T
   6   -123.7452714 -0.143779E-03  0.271E-02    0.22       1.0  T
   7   -123.7453645 -0.930449E-04  0.788E-03    0.19       1.4  T
   8   -123.7453591  0.537670E-05  0.813E-03    0.18       1.4  T
   9   -123.7453674 -0.825333E-05  0.390E-03    0.19       2.9  T
  10   -123.7453686 -0.128158E-05  0.157E-03    0.19       7.3  T
  11   -123.7453687 -0.907100E-07  0.885E-04    0.19      12.9  T
  12   -123.7453687 -0.228782E-07  0.480E-04    0.19      23.7  T
     SCC iter.                  ...        0 min,  0.101 sec
     gradient                   ...        0 min,  0.084 sec
 * total energy  :  -121.7027450 Eh     change       -0.5219159E-02 Eh
   gradient norm :     0.0172634 Eh/α   predicted    -0.4870104E-02 (  -6.69%)
   displ. norm   :     0.8014220 α      lambda       -0.5093785E-02
   maximum displ.:     0.3316896 α      in ANC's #18, #14, #8, ...

........................................................................
.............................. CYCLE   26 ..............................
........................................................................
   1   -123.7520925 -0.123752E+03  0.133E-01    0.30       0.0  T
   2   -123.7511554  0.937137E-03  0.112E-01    0.16       1.0  T
   3   -123.7517126 -0.557209E-03  0.866E-02    0.35       1.0  T
   4   -123.7521389 -0.426372E-03  0.405E-02    0.29       1.0  T
   5   -123.7522353 -0.963814E-04  0.265E-02    0.26       1.0  T
   6   -123.7523031 -0.677727E-04  0.160E-02    0.23       1.0  T
   7   -123.7523228 -0.196582E-04  0.761E-03    0.21       1.5  T
   8   -123.7523201  0.268591E-05  0.757E-03    0.21       1.5  T
   9   -123.7523254 -0.535521E-05  0.355E-03    0.21       3.2  T
  10   -123.7523265 -0.105067E-05  0.151E-03    0.22       7.5  T
  11   -123.7523265  0.147154E-07  0.972E-04    0.22      11.7  T
  12   -123.7523265 -0.359387E-07  0.686E-04    0.22      16.6  T
     SCC iter.                  ...        0 min,  0.101 sec
     gradient                   ...        0 min,  0.084 sec
 * total energy  :  -121.7071563 Eh     change       -0.4411340E-02 Eh
   gradient norm :     0.0118192 Eh/α   predicted    -0.4182705E-02 (  -5.18%)
   displ. norm   :     0.7994882 α      lambda       -0.4077019E-02
   maximum displ.:     0.2908287 α      in ANC's #18, #14, #11, ...

........................................................................
.............................. CYCLE   27 ..............................
........................................................................
   1   -123.7598155 -0.123760E+03  0.123E-01    0.30       0.0  T
   2   -123.7597946  0.209047E-04  0.797E-02    0.21       1.0  T
   3   -123.7595680  0.226665E-03  0.635E-02    0.33       1.0  T
   4   -123.7598971 -0.329171E-03  0.169E-02    0.26       1.0  T
   5   -123.7599130 -0.158971E-04  0.101E-02    0.25       1.1  T
   6   -123.7599114  0.166143E-05  0.822E-03    0.23       1.4  T
   7   -123.7599154 -0.399721E-05  0.436E-03    0.24       2.6  T
   8   -123.7599160 -0.603193E-06  0.224E-03    0.24       5.1  T
   9   -123.7599160 -0.545563E-07  0.112E-03    0.24      10.2  T
  10   -123.7599161 -0.324731E-07  0.619E-04    0.24      18.4  T
  11   -123.7599161 -0.547971E-08  0.427E-04    0.24      26.7  T
     SCC iter.                  ...        0 min,  0.092 sec
     gradient                   ...        0 min,  0.084 sec
 * total energy  :  -121.7106052 Eh     change       -0.3448892E-02 Eh
   gradient norm :     0.0140825 Eh/α   predicted    -0.3341490E-02 (  -3.11%)
   displ. norm   :     0.8192200 α      lambda       -0.3316405E-02
   maximum displ.:     0.2700707 α      in ANC's #14, #18, #5, ...

........................................................................
.............................. CYCLE   28 ..............................
........................................................................
   1   -123.7608706 -0.123761E+03  0.131E-01    0.31       0.0  T
   2   -123.7608872 -0.166502E-04  0.773E-02    0.27       1.0  T
   3   -123.7608059  0.813407E-04  0.364E-02    0.31       1.0  T
   4   -123.7608999 -0.939927E-04  0.128E-02    0.28       1.0  T
   5   -123.7609010 -0.118814E-05  0.103E-02    0.28       1.1  T
   6   -123.7609030 -0.196908E-05  0.604E-03    0.28       1.9  T
   7   -123.7609038 -0.822227E-06  0.342E-03    0.28       3.3  T
   8   -123.7609040 -0.140123E-06  0.203E-03    0.28       5.6  T
   9   -123.7609041 -0.141571E-06  0.101E-03    0.28      11.3  T
  10   -123.7609041 -0.747639E-08  0.714E-04    0.28      16.0  T
  11   -123.7609041 -0.457435E-08  0.451E-04    0.28      25.3  T
     SCC iter.                  ...        0 min,  0.092 sec
     gradient                   ...        0 min,  0.084 sec
 * total energy  :  -121.7131997 Eh     change       -0.2594481E-02 Eh
   gradient norm :     0.0257143 Eh/α   predicted    -0.2771062E-02 (   6.81%)
   displ. norm   :     0.7541255 α      lambda       -0.2876583E-02
   maximum displ.:     0.2717730 α      in ANC's #14, #7, #11, ...

........................................................................
.............................. CYCLE   29 ..............................
........................................................................
   1   -123.7680417 -0.123768E+03  0.109E-01    0.34       0.0  T
   2   -123.7680546 -0.128713E-04  0.665E-02    0.30       1.0  T
   3   -123.7680067  0.479311E-04  0.299E-02    0.32       1.0  T
   4   -123.7680638 -0.571070E-04  0.123E-02    0.30       1.0  T
   5   -123.7680641 -0.297406E-06  0.938E-03    0.31       1.2  T
   6   -123.7680645 -0.474222E-06  0.569E-03    0.30       2.0  T
   7   -123.7680658 -0.128962E-05  0.311E-03    0.31       3.7  T
   8   -123.7680659 -0.937729E-07  0.176E-03    0.31       6.5  T
   9   -123.7680660 -0.130187E-06  0.886E-04    0.31      12.9  T
  10   -123.7680660 -0.354366E-08  0.589E-04    0.31      19.3  T
     SCC iter.                  ...        0 min,  0.084 sec
     gradient                   ...        0 min,  0.084 sec
 * total energy  :  -121.7155366 Eh     change       -0.2336902E-02 Eh
   gradient norm :     0.0140520 Eh/α   predicted    -0.2256258E-02 (  -3.45%)
   displ. norm   :     0.7960611 α      lambda       -0.2367943E-02
   maximum displ.:     0.3141632 α      in ANC's #1, #7, #2, ...

........................................................................
.............................. CYCLE   30 ..............................
........................................................................
   1   -123.7699081 -0.123770E+03  0.124E-01    0.35       0.0  T
   2   -123.7699173 -0.917879E-05  0.728E-02    0.33       1.0  T
   3   -123.7698805  0.367162E-04  0.282E-02    0.35       1.0  T
   4   -123.7699251 -0.445878E-04  0.115E-02    0.33       1.0  T
   5   -123.7699249  0.251829E-06  0.728E-03    0.34       1.6  T
   6   -123.7699257 -0.839824E-06  0.496E-03    0.33       2.3  T
   7   -123.7699260 -0.237481E-06  0.296E-03    0.34       3.9  T
   8   -123.7699262 -0.238312E-06  0.128E-03    0.33       8.9  T
   9   -123.7699263 -0.905415E-07  0.639E-04    0.33      17.8  T
  10   -123.7699263 -0.268587E-08  0.451E-04    0.33      25.3  T
     SCC iter.                  ...        0 min,  0.084 sec
     gradient                   ...        0 min,  0.084 sec
 * total energy  :  -121.7176091 Eh     change       -0.2072506E-02 Eh
   gradient norm :     0.0137849 Eh/α   predicted    -0.1934273E-02 (  -6.67%)
   displ. norm   :     0.8061548 α      lambda       -0.2479579E-02
   maximum displ.:     0.3256088 α      in ANC's #7, #2, #1, ...

........................................................................
.............................. CYCLE   31 ..............................
........................................................................
   1   -123.7754327 -0.123775E+03  0.122E-01    0.39       0.0  T
   2   -123.7754410 -0.823538E-05  0.721E-02    0.38       1.0  T
   3   -123.7754099  0.310803E-04  0.233E-02    0.38       1.0  T
   4   -123.7754459 -0.359955E-04  0.102E-02    0.38       1.1  T
   5   -123.7754463 -0.404759E-06  0.779E-03    0.38       1.5  T
   6   -123.7754472 -0.936624E-06  0.408E-03    0.38       2.8  T
   7   -123.7754476 -0.349320E-06  0.222E-03    0.38       5.1  T
   8   -123.7754477 -0.107896E-06  0.910E-04    0.38      12.5  T
   9   -123.7754477 -0.237041E-07  0.464E-04    0.38      24.6  T
     SCC iter.                  ...        0 min,  0.076 sec
     gradient                   ...        0 min,  0.084 sec
 * total energy  :  -121.7197653 Eh     change       -0.2156234E-02 Eh
   gradient norm :     0.0095066 Eh/α   predicted    -0.2045577E-02 (  -5.13%)
   displ. norm   :     0.8473045 α      lambda       -0.2268668E-02
   maximum displ.:     0.3595834 α      in ANC's #7, #1, #2, ...

........................................................................
.............................. CYCLE   32 ..............................
........................................................................
   1   -123.7758046 -0.123776E+03  0.126E-01    0.39       0.0  T
   2   -123.7758178 -0.132107E-04  0.747E-02    0.38       1.0  T
   3   -123.7757870  0.308009E-04  0.259E-02    0.38       1.0  T
   4   -123.7758242 -0.371388E-04  0.128E-02    0.38       1.0  T
   5   -123.7758247 -0.520192E-06  0.870E-03    0.38       1.3  T
   6   -123.7758259 -0.122395E-05  0.556E-03    0.38       2.1  T
   7   -123.7758262 -0.284646E-06  0.325E-03    0.38       3.5  T
   8   -123.7758263 -0.154590E-06  0.160E-03    0.38       7.1  T
   9   -123.7758265 -0.157492E-06  0.578E-04    0.38      19.7  T
  10   -123.7758265 -0.126421E-08  0.411E-04    0.38      27.7  T
     SCC iter.                  ...        0 min,  0.084 sec
     gradient                   ...        0 min,  0.084 sec
 * total energy  :  -121.7217428 Eh     change       -0.1977470E-02 Eh
   gradient norm :     0.0130741 Eh/α   predicted    -0.1948716E-02 (  -1.45%)
   displ. norm   :     0.8330693 α      lambda       -0.2162049E-02
   maximum displ.:     0.3914973 α      in ANC's #7, #2, #3, ...

........................................................................
.............................. CYCLE   33 ..............................
........................................................................
   1   -123.7758715 -0.123776E+03  0.124E-01    0.41       0.0  T
   2   -123.7758846 -0.130616E-04  0.733E-02    0.41       1.0  T
   3   -123.7758570  0.276168E-04  0.249E-02    0.40       1.0  T
   4   -123.7758912 -0.342360E-04  0.106E-02    0.41       1.1  T
   5   -123.7758910  0.193903E-06  0.814E-03    0.41       1.4  T
   6   -123.7758922 -0.115449E-05  0.446E-03    0.41       2.6  T
   7   -123.7758924 -0.241481E-06  0.250E-03    0.41       4.6  T
   8   -123.7758927 -0.228486E-06  0.111E-03    0.41      10.3  T
   9   -123.7758927 -0.507828E-07  0.556E-04    0.41      20.5  T
  10   -123.7758927 -0.635377E-08  0.340E-04    0.41      33.5  T
     SCC iter.                  ...        0 min,  0.084 sec
     gradient                   ...        0 min,  0.084 sec
 * total energy  :  -121.7235749 Eh     change       -0.1832135E-02 Eh
   gradient norm :     0.0137175 Eh/α   predicted    -0.1831262E-02 (  -0.05%)
   displ. norm   :     0.8334887 α      lambda       -0.2055161E-02
   maximum displ.:     0.4038919 α      in ANC's #7, #2, #3, ...

........................................................................
.............................. CYCLE   34 ..............................
........................................................................
   1   -123.7793907 -0.123779E+03  0.122E-01    0.43       0.0  T
   2   -123.7794081 -0.174330E-04  0.716E-02    0.43       1.0  T
   3   -123.7793436  0.644955E-04  0.330E-02    0.42       1.0  T
   4   -123.7794217 -0.780832E-04  0.119E-02    0.43       1.0  T
   5   -123.7794224 -0.659249E-06  0.877E-03    0.43       1.3  T
   6   -123.7794228 -0.388940E-06  0.584E-03    0.43       2.0  T
   7   -123.7794233 -0.553347E-06  0.372E-03    0.43       3.1  T
   8   -123.7794236 -0.319846E-06  0.145E-03    0.43       7.9  T
   9   -123.7794237 -0.926105E-07  0.578E-04    0.43      19.7  T
  10   -123.7794237 -0.685350E-08  0.349E-04    0.43      32.6  T
     SCC iter.                  ...        0 min,  0.084 sec
     gradient                   ...        0 min,  0.084 sec
 * total energy  :  -121.7253154 Eh     change       -0.1740462E-02 Eh
   gradient norm :     0.0183119 Eh/α   predicted    -0.1741450E-02 (   0.06%)
   displ. norm   :     0.8220527 α      lambda       -0.2079710E-02
   maximum displ.:     0.4211767 α      in ANC's #7, #2, #3, ...

........................................................................
.............................. CYCLE   35 ..............................
........................................................................
   1   -123.7794710 -0.123779E+03  0.103E-01    0.45       0.0  T
   2   -123.7794918 -0.207605E-04  0.637E-02    0.46       1.0  T
   3   -123.7794403  0.514797E-04  0.319E-02    0.45       1.0  T
   4   -123.7795014 -0.611051E-04  0.123E-02    0.45       1.0  T
   5   -123.7795050 -0.360845E-05  0.977E-03    0.45       1.2  T
   6   -123.7795056 -0.596232E-06  0.574E-03    0.45       2.0  T
   7   -123.7795065 -0.919017E-06  0.237E-03    0.45       4.8  T
   8   -123.7795066 -0.109749E-06  0.116E-03    0.45       9.8  T
   9   -123.7795067 -0.343281E-07  0.651E-04    0.45      17.5  T
  10   -123.7795067 -0.206691E-08  0.363E-04    0.45      31.4  T
     SCC iter.                  ...        0 min,  0.084 sec
     gradient                   ...        0 min,  0.084 sec
 * total energy  :  -121.7270078 Eh     change       -0.1692403E-02 Eh
   gradient norm :     0.0159285 Eh/α   predicted    -0.1742565E-02 (   2.96%)
   displ. norm   :     0.7859776 α      lambda       -0.1970941E-02
   maximum displ.:     0.4147228 α      in ANC's #7, #3, #2, ...

........................................................................
.............................. CYCLE   36 ..............................
........................................................................
   1   -123.7842007 -0.123784E+03  0.107E-01    0.46       0.0  T
   2   -123.7842360 -0.352898E-04  0.637E-02    0.48       1.0  T
   3   -123.7841827  0.532834E-04  0.344E-02    0.46       1.0  T
   4   -123.7842527 -0.699425E-04  0.116E-02    0.47       1.0  T
   5   -123.7842567 -0.402606E-05  0.874E-03    0.47       1.3  T
   6   -123.7842581 -0.138462E-05  0.567E-03    0.47       2.0  T
   7   -123.7842584 -0.284044E-06  0.353E-03    0.47       3.2  T
   8   -123.7842586 -0.212783E-06  0.150E-03    0.47       7.6  T
   9   -123.7842586 -0.601760E-07  0.650E-04    0.47      17.5  T
  10   -123.7842586 -0.448806E-08  0.318E-04    0.47      35.8  T
     SCC iter.                  ...        0 min,  0.084 sec
     gradient                   ...        0 min,  0.084 sec
 * total energy  :  -121.7286728 Eh     change       -0.1665041E-02 Eh
   gradient norm :     0.0151374 Eh/α   predicted    -0.1594257E-02 (  -4.25%)
   displ. norm   :     0.8370281 α      lambda       -0.1846714E-02
   maximum displ.:     0.4517148 α      in ANC's #7, #3, #2, ...

........................................................................
.............................. CYCLE   37 ..............................
........................................................................
   1   -123.7869265 -0.123787E+03  0.106E-01    0.48       0.0  T
   2   -123.7869391 -0.126055E-04  0.626E-02    0.49       1.0  T
   3   -123.7868740  0.651168E-04  0.275E-02    0.48       1.0  T
   4   -123.7869454 -0.714079E-04  0.965E-03    0.49       1.2  T
   5   -123.7869492 -0.380585E-05  0.696E-03    0.49       1.6  T
   6   -123.7869496 -0.400929E-06  0.425E-03    0.49       2.7  T
   7   -123.7869498 -0.255487E-06  0.253E-03    0.49       4.5  T
   8   -123.7869499 -0.565395E-07  0.103E-03    0.49      11.1  T
   9   -123.7869499 -0.363246E-07  0.441E-04    0.49      25.9  T
  10   -123.7869499 -0.421885E-08  0.273E-04    0.49      41.7  T
     SCC iter.                  ...        0 min,  0.084 sec
     gradient                   ...        0 min,  0.084 sec
 * total energy  :  -121.7302109 Eh     change       -0.1538093E-02 Eh
   gradient norm :     0.0186690 Eh/α   predicted    -0.1570281E-02 (   2.09%)
   displ. norm   :     0.8181156 α      lambda       -0.1824806E-02
   maximum displ.:     0.4404641 α      in ANC's #7, #3, #2, ...

........................................................................
.............................. CYCLE   38 ..............................
........................................................................
   1   -123.7855601 -0.123786E+03  0.994E-02    0.49       0.0  T
   2   -123.7855744 -0.143124E-04  0.597E-02    0.51       1.0  T
   3   -123.7855471  0.273610E-04  0.242E-02    0.49       1.0  T
   4   -123.7855811 -0.339682E-04  0.992E-03    0.50       1.1  T
   5   -123.7855818 -0.773708E-06  0.755E-03    0.50       1.5  T
   6   -123.7855822 -0.345320E-06  0.408E-03    0.50       2.8  T
   7   -123.7855823 -0.101653E-06  0.253E-03    0.50       4.5  T
   8   -123.7855825 -0.191184E-06  0.125E-03    0.50       9.1  T
   9   -123.7855825 -0.739477E-07  0.637E-04    0.50      17.9  T
  10   -123.7855825 -0.469102E-08  0.383E-04    0.50      29.7  T
     SCC iter.                  ...        0 min,  0.084 sec
     gradient                   ...        0 min,  0.084 sec
 * total energy  :  -121.7317993 Eh     change       -0.1588346E-02 Eh
   gradient norm :     0.0132133 Eh/α   predicted    -0.1523093E-02 (  -4.11%)
   displ. norm   :     0.8193345 α      lambda       -0.1818553E-02
   maximum displ.:     0.4445762 α      in ANC's #7, #3, #2, ...

........................................................................
.............................. CYCLE   39 ..............................
........................................................................
   1   -123.7962520 -0.123796E+03  0.102E-01    0.55       0.0  T
   2   -123.7962658 -0.137702E-04  0.608E-02    0.56       1.0  T
   3   -123.7962321  0.336696E-04  0.240E-02    0.55       1.0  T
   4   -123.7962728 -0.407128E-04  0.658E-03    0.55       1.7  T
   5   -123.7962734 -0.589957E-06  0.509E-03    0.55       2.2  T
   6   -123.7962736 -0.165989E-06  0.288E-03    0.55       4.0  T
   7   -123.7962737 -0.138295E-06  0.145E-03    0.55       7.9  T
   8   -123.7962738 -0.269656E-07  0.795E-04    0.55      14.3  T
   9   -123.7962738 -0.100010E-07  0.552E-04    0.55      20.6  T
     SCC iter.                  ...        0 min,  0.076 sec
     gradient                   ...        0 min,  0.084 sec
 * total energy  :  -121.7331577 Eh     change       -0.1358437E-02 Eh
   gradient norm :     0.0208264 Eh/α   predicted    -0.1519691E-02 (  11.87%)
   displ. norm   :     0.8294687 α      lambda       -0.1867895E-02
   maximum displ.:     0.4284020 α      in ANC's #7, #3, #2, ...

........................................................................
.............................. CYCLE   40 ..............................
........................................................................
   1   -123.7851993 -0.123785E+03  0.105E-01    0.52       0.0  T
   2   -123.7852152 -0.158715E-04  0.634E-02    0.52       1.0  T
   3   -123.7851646  0.506547E-04  0.302E-02    0.53       1.0  T
   4   -123.7852276 -0.630862E-04  0.746E-03    0.53       1.5  T
   5   -123.7852280 -0.400636E-06  0.590E-03    0.53       1.9  T
   6   -123.7852282 -0.128586E-06  0.364E-03    0.53       3.1  T
   7   -123.7852282 -0.531976E-07  0.254E-03    0.53       4.5  T
   8   -123.7852285 -0.268141E-06  0.109E-03    0.53      10.5  T
   9   -123.7852285 -0.189530E-07  0.541E-04    0.53      21.1  T
  10   -123.7852285 -0.395693E-08  0.337E-04    0.53      33.8  T
     SCC iter.                  ...        0 min,  0.084 sec
     gradient                   ...        0 min,  0.084 sec
 * total energy  :  -121.7344382 Eh     change       -0.1280500E-02 Eh
   gradient norm :     0.0173195 Eh/α   predicted    -0.1576527E-02 (  23.12%)
   displ. norm   :     0.7388306 α      lambda       -0.1617823E-02
   maximum displ.:     0.4019846 α      in ANC's #7, #3, #2, ...

........................................................................
.............................. CYCLE   41 ..............................
........................................................................
   1   -123.7849318 -0.123785E+03  0.962E-02    0.53       0.0  T
   2   -123.7849529 -0.211159E-04  0.579E-02    0.54       1.0  T
   3   -123.7849182  0.346782E-04  0.274E-02    0.53       1.0  T
   4   -123.7849635 -0.452734E-04  0.725E-03    0.53       1.6  T
   5   -123.7849645 -0.965969E-06  0.547E-03    0.53       2.1  T
   6   -123.7849646 -0.965050E-07  0.338E-03    0.53       3.4  T
   7   -123.7849646 -0.904384E-07  0.177E-03    0.53       6.4  T
   8   -123.7849647 -0.759657E-07  0.992E-04    0.53      11.5  T
   9   -123.7849647 -0.231695E-07  0.579E-04    0.53      19.7  T
     SCC iter.                  ...        0 min,  0.076 sec
     gradient                   ...        0 min,  0.084 sec
 * total energy  :  -121.7356017 Eh     change       -0.1163524E-02 Eh
   gradient norm :     0.0210260 Eh/α   predicted    -0.1250476E-02 (   7.47%)
   displ. norm   :     0.6769552 α      lambda       -0.1520602E-02
   maximum displ.:     0.3534332 α      in ANC's #7, #3, #2, ...

........................................................................
.............................. CYCLE   42 ..............................
........................................................................
   1   -123.7920768 -0.123792E+03  0.881E-02    0.56       0.0  T
   2   -123.7920890 -0.121892E-04  0.520E-02    0.57       1.0  T
   3   -123.7920527  0.362672E-04  0.225E-02    0.56       1.0  T
   4   -123.7920954 -0.426758E-04  0.571E-03    0.56       2.0  T
   5   -123.7920963 -0.857984E-06  0.414E-03    0.56       2.8  T
   6   -123.7920965 -0.263964E-06  0.283E-03    0.56       4.0  T
   7   -123.7920967 -0.107496E-06  0.169E-03    0.56       6.7  T
   8   -123.7920967 -0.608057E-07  0.938E-04    0.56      12.1  T
   9   -123.7920967 -0.171219E-07  0.398E-04    0.56      28.7  T
     SCC iter.                  ...        0 min,  0.076 sec
     gradient                   ...        0 min,  0.084 sec
 * total energy  :  -121.7366646 Eh     change       -0.1062909E-02 Eh
   gradient norm :     0.0200462 Eh/α   predicted    -0.1108725E-02 (   4.31%)
   displ. norm   :     0.7634555 α      lambda       -0.1623741E-02
   maximum displ.:     0.3907993 α      in ANC's #7, #3, #2, ...
 * RMSD in coord.:     1.7171528 α      energy gain  -0.6717644E-01 Eh

generating ANC from model Hessian ...
Using Lindh-Hessian (1995)
 Shifting diagonal of input Hessian by    1.0003327524710968E-002
 Lowest  eigenvalues of input Hessian
[...]
       113        2.0000           -0.2208140              -6.0087
       114        2.0000           -0.2108278              -5.7369
       115        2.0000           -0.1990051              -5.4152 (HOMO)
       116                         -0.1503662              -4.0917 (LUMO)
       117                         -0.1445286              -3.9328
       118                         -0.1435308              -3.9057
       119                         -0.1391495              -3.7864
       120                         -0.1323654              -3.6018
       121                         -0.1262067              -3.4343
       122                         -0.1168259              -3.1790
       123                         -0.1127818              -3.0689
       124                         -0.1009612              -2.7473
       125                         -0.0993737              -2.7041
       126                         -0.0875302              -2.3818
       ...                                ...                  ...
       225                          0.8239900              22.4219
      -------------------------------------------------------------
                  HL-Gap            0.0486389 Eh            1.3235 eV
             Fermi-level           -0.1746865 Eh           -4.7535 eV

     #   Z          covCN         q      C6AA      α(0)
     1  35 Br       1.089    -0.173   189.858    22.217
     2   6 C        2.988    -0.016    28.408     8.743
     3   6 C        2.914    -0.074    29.841     8.958
     4   6 C        2.921    -0.066    29.636     8.927
     5   6 C        2.957     0.054    26.777     8.487
     6   6 C        2.920    -0.040    29.005     8.832
     7   6 C        2.923    -0.062    29.534     8.912
     8   6 C        2.913     0.078    26.252     8.402
     9   6 C        2.917    -0.054    29.343     8.883
    10   6 C        2.922    -0.033    28.822     8.804
    11   6 C        2.986     0.003    27.941     8.671
    12   6 C        2.942     0.056    26.754     8.483
    13   6 C        2.971    -0.041    29.018     8.836
    14   6 C        2.916    -0.054    29.338     8.882
    15   6 C        3.645     0.042    20.197     6.459
    16   6 C        2.921    -0.063    29.572     8.918
    17   6 C        2.867     0.148    24.792     8.162
    18   6 C        2.915    -0.045    29.112     8.848
    19   6 C        2.920    -0.047    29.163     8.856
    20   6 C        3.001    -0.035    28.846     8.810
    21   6 C        2.925    -0.045    29.106     8.847
    22   6 C        2.920     0.071    26.414     8.428
    23   6 C        2.995    -0.028    28.701     8.788
    24   6 C        2.925    -0.037    28.916     8.818
    25   6 C        2.977     0.021    27.526     8.606
    26   6 C        2.916    -0.040    28.982     8.828
    27   6 C        2.904     0.082    26.180     8.390
    28   6 C        2.919    -0.072    29.789     8.950
    29   6 C        2.916    -0.035    28.873     8.811
    30   6 C        2.921    -0.035    28.879     8.813
    31   6 C        2.913    -0.037    28.927     8.819
    32   6 C        3.001     0.020    27.559     8.612
    33   6 C        2.978    -0.040    28.984     8.831
    34   6 C        2.918    -0.034    28.857     8.809
    35   6 C        2.917    -0.041    29.021     8.834
    36   6 C        2.927    -0.028    28.710     8.787
    37   6 C        2.944    -0.032    28.788     8.800
    38   6 C        3.710    -0.046    21.545     6.633
    39   6 C        2.926    -0.043    29.073     8.842
    40   6 C        2.914    -0.067    29.680     8.933
    41   6 C        2.920    -0.039    28.979     8.828
    42   6 C        2.918    -0.031    28.768     8.796
    43  29 Cu       2.454     0.204   146.085    27.522
    44   1 H        0.926     0.043     2.406     2.426
    45   1 H        0.925     0.055     2.261     2.352
    46   1 H        0.925    -0.006     3.156     2.778
    47   1 H        0.925     0.005     2.965     2.693
    48   1 H        0.925     0.003     3.000     2.709
    49   1 H        0.925     0.001     3.038     2.726
    50   1 H        0.925    -0.009     3.223     2.807
    51   1 H        0.924     0.048     2.340     2.392
    52   1 H        0.925     0.017     2.775     2.605
    53   1 H        0.926     0.036     2.499     2.472
    54   1 H        0.926     0.045     2.379     2.412
    55   1 H        0.926     0.061     2.191     2.315
    56   1 H        0.925    -0.009     3.214     2.804
    57   1 H        0.926     0.016     2.801     2.617
    58   1 H        0.926     0.014     2.819     2.625
    59   1 H        0.924     0.030     2.593     2.518
    60   1 H        0.925     0.004     2.982     2.700
    61   1 H        0.926     0.075     2.036     2.232
    62   1 H        0.926     0.017     2.782     2.608
    63   1 H        0.925     0.021     2.718     2.578
    64   1 H        0.925     0.002     3.016     2.716
    65   1 H        0.926     0.015     2.815     2.624
    66   1 H        0.925     0.007     2.938     2.681
    67   1 H        0.925     0.020     2.731     2.584
    68   1 H        0.925    -0.014     3.314     2.847
    69   1 H        0.925     0.016     2.787     2.611
    70   1 H        0.925     0.057     2.230     2.335
    71   1 H        0.925     0.001     3.039     2.726
    72   1 H        0.925    -0.011     3.262     2.824
    73   1 H        0.925     0.007     2.939     2.681
    74   1 H        0.925     0.013     2.850     2.640
    75   7 N        2.590    -0.267    26.938     7.708
    76   7 N        2.588    -0.292    27.538     7.794
    77   8 O        1.706    -0.267    18.426     5.796

 Mol. C6AA /au·bohr⁶  :      95407.348872
 Mol. C8AA /au·bohr⁸  :    2658729.641100
 Mol. α(0) /au        :        506.349920


Wiberg/Mayer (AO) data.
largest (>0.10) Wiberg bond orders for each atom

 ---------------------------------------------------------------------------
     #   Z sym  total        # sym  WBO       # sym  WBO       # sym  WBO
 ---------------------------------------------------------------------------
     1  35 Br   1.113 --    22 C    0.963
     2   6 C    3.983 --    10 C    1.332    11 C    1.252     8 C    1.160
     3   6 C    3.957 --     6 C    1.500    11 C    1.272    46 H    0.969
     4   6 C    3.980 --     9 C    1.432    12 C    1.358    47 H    0.965
     5   6 C    3.966 --     7 C    1.369    12 C    1.235    75 N    1.142
     6   6 C    3.988 --     3 C    1.500    13 C    1.347    49 H    0.967
     7   6 C    3.981 --    14 C    1.431     5 C    1.369    48 H    0.968
     8   6 C    3.975 --    13 C    1.285    75 N    1.275     2 C    1.160
     9   6 C    3.975 --     4 C    1.432    14 C    1.415    50 H    0.971
    10   6 C    3.985 --    18 C    1.514     2 C    1.332    44 H    0.912
                            19 C    0.108
    11   6 C    3.986 --    19 C    1.285     3 C    1.272     2 C    1.252
    12   6 C    3.967 --     4 C    1.358     5 C    1.235    76 N    1.161
    13   6 C    3.974 --     6 C    1.347     8 C    1.285    25 C    1.059
    14   6 C    3.973 --     7 C    1.431     9 C    1.415    56 H    0.972
    15   6 C    3.949 --    77 O    0.987    45 H    0.981    59 H    0.977
                            51 H    0.972
    16   6 C    3.987 --    20 C    1.432    17 C    1.373    53 H    0.965
    17   6 C    3.936 --    16 C    1.373    21 C    1.348    77 O    1.061
    18   6 C    3.984 --    10 C    1.514    26 C    1.339    57 H    0.971
    19   6 C    3.982 --    26 C    1.537    11 C    1.285    60 H    0.970
                            10 C    0.108
    20   6 C    3.990 --    16 C    1.432    22 C    1.423    54 H    0.969
                            21 C    0.107
    21   6 C    3.988 --    23 C    1.466    17 C    1.348    55 H    0.965
                            20 C    0.107
    22   6 C    3.934 --    20 C    1.423    23 C    1.392     1 Br   0.963
    23   6 C    3.987 --    21 C    1.466    22 C    1.392    61 H    0.956
    24   6 C    3.987 --    34 C    1.451    25 C    1.381    52 H    0.969
                            42 C    0.102
    25   6 C    3.985 --    24 C    1.381    36 C    1.370    13 C    1.059
                            41 C    0.103
    26   6 C    3.984 --    19 C    1.537    18 C    1.339    64 H    0.972
    27   6 C    3.977 --    76 N    1.313    28 C    1.257    33 C    1.213
    28   6 C    3.981 --    35 C    1.512    27 C    1.257    58 H    0.961
    29   6 C    3.985 --    30 C    1.439    31 C    1.409    62 H    0.972
    30   6 C    3.986 --    29 C    1.439    32 C    1.390    63 H    0.967
    31   6 C    3.981 --    37 C    1.455    29 C    1.409    65 H    0.971
    32   6 C    3.981 --    30 C    1.390    38 C    1.233    33 C    1.091
    33   6 C    3.970 --    39 C    1.404    27 C    1.213    32 C    1.091
    34   6 C    3.991 --    24 C    1.451    41 C    1.434    66 H    0.972
                            36 C    0.106
    35   6 C    3.979 --    28 C    1.512    40 C    1.368    68 H    0.967
    36   6 C    3.989 --    42 C    1.463    25 C    1.370    67 H    0.966
                            34 C    0.106
    37   6 C    3.985 --    31 C    1.455    38 C    1.300    69 H    0.969
                            43 Cu   0.106
    38   6 C    3.991 --    37 C    1.300    32 C    1.233    70 H    0.918
                            43 Cu   0.342
    39   6 C    3.988 --    40 C    1.444    33 C    1.404    71 H    0.968
    40   6 C    3.961 --    39 C    1.444    35 C    1.368    72 H    0.972
    41   6 C    3.983 --    34 C    1.434    42 C    1.422    73 H    0.972
                            25 C    0.103
    42   6 C    3.992 --    36 C    1.463    41 C    1.422    74 H    0.971
                            24 C    0.102
    43  29 Cu   1.765 --    75 N    0.508    76 N    0.401    38 C    0.342
                            37 C    0.106
    44   1 H    0.998 --    10 C    0.912
    45   1 H    0.997 --    15 C    0.981
    46   1 H    0.999 --     3 C    0.969
    47   1 H    0.999 --     4 C    0.965
    48   1 H    0.999 --     7 C    0.968
    49   1 H    0.999 --     6 C    0.967
    50   1 H    0.999 --     9 C    0.971
    51   1 H    0.997 --    15 C    0.972
    52   1 H    1.000 --    24 C    0.969
    53   1 H    0.999 --    16 C    0.965
    54   1 H    0.998 --    20 C    0.969
    55   1 H    0.996 --    21 C    0.965
    56   1 H    0.999 --    14 C    0.972
    57   1 H    0.999 --    18 C    0.971
    58   1 H    0.999 --    28 C    0.961
    59   1 H    0.999 --    15 C    0.977
    60   1 H    0.999 --    19 C    0.970
    61   1 H    0.994 --    23 C    0.956
    62   1 H    0.999 --    29 C    0.972
    63   1 H    1.000 --    30 C    0.967
    64   1 H    0.999 --    26 C    0.972
    65   1 H    0.999 --    31 C    0.971
    66   1 H    0.999 --    34 C    0.972
    67   1 H    1.000 --    36 C    0.966
    68   1 H    0.999 --    35 C    0.967
    69   1 H    0.999 --    37 C    0.969
    70   1 H    0.997 --    38 C    0.918
    71   1 H    0.999 --    39 C    0.968
    72   1 H    0.999 --    40 C    0.972
    73   1 H    0.999 --    41 C    0.972
    74   1 H    0.999 --    42 C    0.971
    75   7 N    3.335 --     8 C    1.275     5 C    1.142    43 Cu   0.508
    76   7 N    3.320 --    27 C    1.313    12 C    1.161    43 Cu   0.401
    77   8 O    2.229 --    17 C    1.061    15 C    0.987
 ---------------------------------------------------------------------------

Topologies differ in total number of bonds
Writing topology from bond orders to xtbtopo.mol

molecular dipole:
                 x           y           z       tot (Debye)
 q only:       -4.006      -2.751       6.603
   full:       -4.398      -4.040       6.492      22.421
molecular quadrupole (traceless):
                xx          xy          yy          xz          yz          zz
 q only:       -8.270      -8.904       9.016      39.017      20.288      -0.746
  q+dip:        1.024     -29.497       3.579      43.800      26.784      -4.603
   full:       -5.405     -29.576       0.556      43.454      26.263       4.848

           -------------------------------------------------
          |                Geometry Summary                 |
           -------------------------------------------------

      molecular mass/u    :      711.1487142
   center of mass at/Å    :        3.1050150       1.7875755      -2.9466439
  moments of inertia/u·Å² :        0.5815553E+04   0.7674897E+04   0.9837010E+04
rotational constants/cm⁻¹ :        0.2898715E-02   0.2196464E-02   0.1713695E-02

 * 77 selected distances

     #   Z          #   Z                                           value/Å
     3   6 C        6   6 C                                       1.3708430
     5   6 C        7   6 C                                       1.3935512
     4   6 C        9   6 C                                       1.3828400
     2   6 C       10   6 C                                       1.4011498
     2   6 C       11   6 C                                       1.4192176
     3   6 C       11   6 C                                       1.4075978
     4   6 C       12   6 C                                       1.3969051
     5   6 C       12   6 C                                       1.4261853
     6   6 C       13   6 C                                       1.3984813
     8   6 C       13   6 C                                       1.4144045
     7   6 C       14   6 C                                       1.3816997
     9   6 C       14   6 C                                       1.3829985
    16   6 C       17   6 C                                       1.3908598
    10   6 C       18   6 C                                       1.3704048
    11   6 C       19   6 C                                       1.4101799
    16   6 C       20   6 C                                       1.3838084
    17   6 C       21   6 C                                       1.3960135
     1  35 Br      22   6 C                                       1.8967222 (max)
    20   6 C       22   6 C                                       1.3788817
    21   6 C       23   6 C                                       1.3776881
    22   6 C       23   6 C                                       1.3846392
    24   6 C       25   6 C                                       1.3936085
    18   6 C       26   6 C                                       1.3994064
    19   6 C       26   6 C                                       1.3685516
    27   6 C       28   6 C                                       1.4179850
    29   6 C       30   6 C                                       1.3835268
    29   6 C       31   6 C                                       1.3871676
    30   6 C       32   6 C                                       1.3934861
    24   6 C       34   6 C                                       1.3816340
    28   6 C       35   6 C                                       1.3710766
    25   6 C       36   6 C                                       1.3961396
    31   6 C       37   6 C                                       1.3798725
    32   6 C       38   6 C                                       1.4272751
    37   6 C       38   6 C                                       1.4139523
    33   6 C       39   6 C                                       1.3917240
    35   6 C       40   6 C                                       1.3904315
    39   6 C       40   6 C                                       1.3792288
    34   6 C       41   6 C                                       1.3837053
    36   6 C       42   6 C                                       1.3790569
    41   6 C       42   6 C                                       1.3855816
    10   6 C       44   1 H                                       1.0863816
    15   6 C       45   1 H                                       1.0894051
     3   6 C       46   1 H                                       1.0817504
     4   6 C       47   1 H                                       1.0812506
     7   6 C       48   1 H                                       1.0822792
     6   6 C       49   1 H                                       1.0834203
     9   6 C       50   1 H                                       1.0826178
    15   6 C       51   1 H                                       1.0936495
    24   6 C       52   1 H                                       1.0815401
    16   6 C       53   1 H                                       1.0781601
    20   6 C       54   1 H                                       1.0793508
    21   6 C       55   1 H                                       1.0780135 (min)
    14   6 C       56   1 H                                       1.0822090
    18   6 C       57   1 H                                       1.0807492
    28   6 C       58   1 H                                       1.0789226
    15   6 C       59   1 H                                       1.0964780
    19   6 C       60   1 H                                       1.0831754
    23   6 C       61   1 H                                       1.0791099
    29   6 C       62   1 H                                       1.0806994
    30   6 C       63   1 H                                       1.0812761
    26   6 C       64   1 H                                       1.0826298
    31   6 C       65   1 H                                       1.0807676
    34   6 C       66   1 H                                       1.0825961
    36   6 C       67   1 H                                       1.0818443
    35   6 C       68   1 H                                       1.0852520
    37   6 C       69   1 H                                       1.0818846
    38   6 C       70   1 H                                       1.0901275
    39   6 C       71   1 H                                       1.0829853
    40   6 C       72   1 H                                       1.0816613
    41   6 C       73   1 H                                       1.0816056
    42   6 C       74   1 H                                       1.0816048
     5   6 C       75   7 N                                       1.3866166
     8   6 C       75   7 N                                       1.3515289
    12   6 C       76   7 N                                       1.3788110
    27   6 C       76   7 N                                       1.3402701
    15   6 C       77   8 O                                       1.4049365
    17   6 C       77   8 O                                       1.3622360

 * 5 distinct bonds (by element types)

   Z      Z             #   av. dist./Å        max./Å        min./Å
   1 H    6 C          31     1.0830128     1.0964780     1.0780135
   6 C    6 C          39     1.3920964     1.4272751     1.3685516
   6 C    7 N           4     1.3643066     1.3866166     1.3402701
   6 C    8 O           2     1.3835862     1.4049365     1.3622360
   6 C   35 Br          1     1.8967222     1.8967222     1.8967222


optimized geometry written to: xtbopt.xyz


           -------------------------------------------------
          | TOTAL ENERGY             -121.762526914289 Eh   |
          | GRADIENT NORM               0.000210804628 Eh/α |
          | HOMO-LUMO GAP               1.323530591734 eV   |
           -------------------------------------------------

------------------------------------------------------------------------
 * finished run on 2024/03/10 at 13:20:15.859     
------------------------------------------------------------------------
 total:
 * wall-time:     0 d,  0 h,  0 min, 28.223 sec
 *  cpu-time:     0 d,  0 h,  0 min, 28.093 sec
 * ratio c/w:     0.995 speedup
 SCF:
 * wall-time:     0 d,  0 h,  0 min,  0.257 sec
 *  cpu-time:     0 d,  0 h,  0 min,  0.256 sec
 * ratio c/w:     0.998 speedup
 ANC optimizer:
 * wall-time:     0 d,  0 h,  0 min, 27.894 sec
 *  cpu-time:     0 d,  0 h,  0 min, 27.804 sec
 * ratio c/w:     0.997 speedup

