      -----------------------------------------------------------      
     |                   =====================                   |     
     |                           x T B                           |     
     |                   =====================                   |     
     |                         S. Grimme                         |     
     |          Mulliken Center for Theoretical Chemistry        |     
     |                    University of Bonn                     |     
      -----------------------------------------------------------      

   * xtb version 6.5.1 (fef0646) compiled by 'conda@b96dff2e9fd6' on 2023-01-04

   xtb is free software: you can redistribute it and/or modify it under
   the terms of the GNU Lesser General Public License as published by
   the Free Software Foundation, either version 3 of the License, or
   (at your option) any later version.
   
   xtb is distributed in the hope that it will be useful,
   but WITHOUT ANY WARRANTY; without even the implied warranty of
   MERCHANTABILITY or FITNESS FOR A PARTICULAR PURPOSE.  See the
   GNU Lesser General Public License for more details.
   
   Cite this work as:
   * C. Bannwarth, E. Caldeweyher, S. Ehlert, A. Hansen, P. Pracht,
     J. Seibert, S. Spicher, S. Grimme, WIREs Comput. Mol. Sci., 2020, 11,
     e01493. DOI: 10.1002/wcms.1493
   
   for GFN2-xTB:
   * C. Bannwarth, S. Ehlert and S. Grimme., J. Chem. Theory Comput., 2019,
     15, 1652-1671. DOI: 10.1021/acs.jctc.8b01176
   for GFN1-xTB:
   * S. Grimme, C. Bannwarth, P. Shushkov, J. Chem. Theory Comput., 2017,
     13, 1989-2009. DOI: 10.1021/acs.jctc.7b00118
   for GFN0-xTB:
   * P. Pracht, E. Caldeweyher, S. Ehlert, S. Grimme, ChemRxiv, 2019, preprint.
     DOI: 10.26434/chemrxiv.8326202.v1
   for GFN-FF:
   * S. Spicher and S. Grimme, Angew. Chem. Int. Ed., 2020, 59, 15665-15673.
     DOI: 10.1002/anie.202004239
   
   for ALPB and GBSA implicit solvation:
   * S. Ehlert, M. Stahn, S. Spicher, S. Grimme, J. Chem. Theory Comput.,
     2021, 17, 4250-4261. DOI: 10.1021/acs.jctc.1c00471
   
   for DFT-D4:
   * E. Caldeweyher, C. Bannwarth and S. Grimme, J. Chem. Phys., 2017,
     147, 034112. DOI: 10.1063/1.4993215
   * E. Caldeweyher, S. Ehlert, A. Hansen, H. Neugebauer, S. Spicher,
     C. Bannwarth and S. Grimme, J. Chem. Phys., 2019, 150, 154122.
     DOI: 10.1063/1.5090222
   * E. Caldeweyher, J.-M. Mewes, S. Ehlert and S. Grimme, Phys. Chem. Chem. Phys.
     2020, 22, 8499-8512. DOI: 10.1039/D0CP00502A
   
   for sTDA-xTB:
   * S. Grimme and C. Bannwarth, J. Chem. Phys., 2016, 145, 054103.
     DOI: 10.1063/1.4959605
   
   in the mass-spec context:
   * V. Asgeirsson, C. Bauer and S. Grimme, Chem. Sci., 2017, 8, 4879.
     DOI: 10.1039/c7sc00601b
   * J. Koopman and S. Grimme, ACS Omega 2019, 4, 12, 15120-15133.
     DOI: 10.1021/acsomega.9b02011
   
   for metadynamics refer to:
   * S. Grimme, J. Chem. Theory Comput., 2019, 155, 2847-2862
     DOI: 10.1021/acs.jctc.9b00143
   
   for SPH calculations refer to:
   * S. Spicher and S. Grimme, J. Chem. Theory Comput., 2021, 17, 1701-1714
     DOI: 10.1021/acs.jctc.0c01306
   
   with help from (in alphabetical order)
   P. Atkinson, C. Bannwarth, F. Bohle, G. Brandenburg, E. Caldeweyher
   M. Checinski, S. Dohm, S. Ehlert, S. Ehrlich, I. Gerasimov, C. Hölzer
   A. Katbashev, J. Koopman, C. Lavigne, S. Lehtola, F. März, M. Müller,
   F. Musil, H. Neugebauer, J. Pisarek, C. Plett, P. Pracht, F. Pultar,
   J. Seibert, P. Shushkov, S. Spicher, M. Stahn, M. Steiner, T. Strunk,
   J. Stückrath, T. Rose, and J. Unsleber
   
 * started run on 2024/03/10 at 13:19:33.248     

           -------------------------------------------------
          |                Calculation Setup                |
           -------------------------------------------------

          program call               : xtb /scratch/negishi/li1724/Test-4-5-just-xtbrun/xtb_run/641656_1_init.xyz --iterations 300 --chrg -1 --uhf 0 --namespace 641656_1_opt --gfn 2 --opt --parallel 1 --input /scratch/negishi/li1724/Test-4-5-just-xtbrun/xtb_run/641656_1_opt.xcontrol
          hostname                   : a084
          calculation namespace      : 641656_1_opt
          coordinate file            : /scratch/negishi/li1724/Test-4-5-just-xtbrun/xtb_run/641656_1_init.xyz
          omp threads                :                     1

   ID    Z sym.   atoms
    1   35 Br     1
    2    6 C      2-42
    3   29 Cu     43
    4    1 H      44-74
    5    7 N      75, 76
    6    8 O      77
constraining bond 43 1 to    2.4940000 Å, actual value:    2.5074452 Å
constraining bond 43 22 to    2.0590000 Å, actual value:    1.9406998 Å
constraining bond 43 75 to    2.0020000 Å, actual value:    2.0583139 Å
constraining bond 43 76 to    2.0020000 Å, actual value:    1.9903549 Å

           -------------------------------------------------
          |                 G F N 2 - x T B                 |
           -------------------------------------------------

        Reference                      10.1021/acs.jctc.8b01176
      * Hamiltonian:
        H0-scaling (s, p, d)           1.850000    2.230000    2.230000
        zeta-weighting                 0.500000
      * Dispersion:
        s8                             2.700000
        a1                             0.520000
        a2                             5.000000
        s9                             5.000000
      * Repulsion:
        kExp                           1.500000    1.000000
        rExp                           1.000000
      * Coulomb:
        alpha                          2.000000
        third order                    shell-resolved
        anisotropic                    true
        a3                             3.000000
        a5                             4.000000
        cn-shift                       1.200000
        cn-exp                         4.000000
        max-rad                        5.000000


          ...................................................
          :                      SETUP                      :
          :.................................................:
          :  # basis functions                 227          :
          :  # atomic orbitals                 225          :
          :  # shells                          125          :
          :  # electrons                       230          :
          :  max. iterations                   300          :
          :  Hamiltonian                  GFN2-xTB          :
          :  restarted?                      false          :
          :  GBSA solvation                  false          :
          :  PC potential                    false          :
          :  electronic temp.          300.0000000     K    :
          :  accuracy                    1.0000000          :
          :  -> integral cutoff          0.2500000E+02      :
          :  -> integral neglect         0.1000000E-07      :
          :  -> SCF convergence          0.1000000E-05 Eh   :
          :  -> wf. convergence          0.1000000E-03 e    :
          :  Broyden damping             0.4000000          :
          ...................................................

 iter      E             dE          RMSdq      gap      omega  full diag
   1   -123.5065791 -0.123507E+03  0.459E+00    0.81       0.0  T
   2   -123.4676629  0.389162E-01  0.293E+00    1.00       1.0  T
   3   -123.1601633  0.307500E+00  0.250E+00    1.21       1.0  T
   4   -123.6939346 -0.533771E+00  0.837E-01    0.59       1.0  T
   5   -123.7084794 -0.145448E-01  0.414E-01    0.59       1.0  T
   6   -123.7012565  0.722292E-02  0.390E-01    0.68       1.0  T
   7   -123.7105883 -0.933178E-02  0.277E-01    0.60       1.0  T
   8   -123.7124622 -0.187390E-02  0.187E-01    0.61       1.0  T
   9   -123.7130857 -0.623546E-03  0.108E-01    0.60       1.0  T
  10   -123.7133222 -0.236453E-03  0.843E-02    0.62       1.0  T
  11   -123.7135953 -0.273140E-03  0.465E-02    0.61       1.0  T
  12   -123.7136061 -0.108578E-04  0.374E-02    0.61       1.0  T
  13   -123.7136411 -0.349722E-04  0.269E-02    0.61       1.0  T
  14   -123.7136383  0.283463E-05  0.194E-02    0.61       1.0  T
  15   -123.7136357  0.254304E-05  0.161E-02    0.61       1.0  T
  16   -123.7136526 -0.168131E-04  0.892E-03    0.61       1.3  T
  17   -123.7136513  0.130474E-05  0.728E-03    0.61       1.6  T
  18   -123.7136539 -0.263598E-05  0.422E-03    0.61       2.7  T
  19   -123.7136552 -0.126694E-05  0.167E-03    0.61       6.8  T
  20   -123.7136552 -0.132119E-07  0.922E-04    0.61      12.4  T
  21   -123.7136552 -0.518540E-07  0.411E-04    0.61      27.7  T

   *** convergence criteria satisfied after 21 iterations ***

         #    Occupation            Energy/Eh            Energy/eV
      -------------------------------------------------------------
         1        2.0000           -0.6702871             -18.2394
       ...           ...                  ...                  ...
       109        2.0000           -0.2648137              -7.2059
       110        2.0000           -0.2554534              -6.9512
       111        2.0000           -0.2539374              -6.9100
       112        2.0000           -0.2477190              -6.7408
       113        2.0000           -0.2413151              -6.5665
       114        2.0000           -0.2396138              -6.5202
       115        2.0000           -0.2255060              -6.1363 (HOMO)
       116        0.0000           -0.2030580              -5.5255 (LUMO)
       117                         -0.1691099              -4.6017
       118                         -0.1509996              -4.1089
       119                         -0.1498055              -4.0764
       120                         -0.1319595              -3.5908
       ...                                ...                  ...
       225                          0.8738587              23.7789
      -------------------------------------------------------------
                  HL-Gap            0.0224480 Eh            0.6108 eV
             Fermi-level           -0.2142820 Eh           -5.8309 eV

 SCC (total)                   0 d,  0 h,  0 min,  0.293 sec
 SCC setup                      ...        0 min,  0.001 sec (  0.356%)
 Dispersion                     ...        0 min,  0.002 sec (  0.579%)
 classical contributions        ...        0 min,  0.001 sec (  0.258%)
 integral evaluation            ...        0 min,  0.024 sec (  8.315%)
 iterations                     ...        0 min,  0.179 sec ( 61.179%)
 molecular gradient             ...        0 min,  0.085 sec ( 29.027%)
 printout                       ...        0 min,  0.001 sec (  0.282%)

         :::::::::::::::::::::::::::::::::::::::::::::::::::::
         ::                     SUMMARY                     ::
         :::::::::::::::::::::::::::::::::::::::::::::::::::::
         :: total energy            -121.738887858739 Eh    ::
         :: gradient norm              0.372549089082 Eh/a0 ::
         :: HOMO-LUMO gap              0.610839931021 eV    ::
         ::.................................................::
         :: SCC energy              -123.713655220801 Eh    ::
         :: -> isotropic ES            0.122022038802 Eh    ::
         :: -> anisotropic ES          0.021877620288 Eh    ::
         :: -> anisotropic XC          0.050994941814 Eh    ::
         :: -> dispersion             -0.125246791310 Eh    ::
         :: repulsion energy           1.938320969822 Eh    ::
         :: add. restraining           0.031215708580 Eh    ::
         :: total charge              -0.999999999993 e     ::
         :::::::::::::::::::::::::::::::::::::::::::::::::::::

      ----------------------------------------------------------- 
     |                   =====================                   |
     |                        A N C O P T                        |
     |                   =====================                   |
     |               Approximate Normal Coordinate               |
     |                Rational Function Optimizer                |
      ----------------------------------------------------------- 

          ...................................................
          :                      SETUP                      :
          :.................................................:
          :   optimization level            normal          :
          :   max. optcycles                   231          :
          :   ANC micro-cycles                  20          :
          :   degrees of freedom               225          :
          :.................................................:
          :   RF solver                   davidson          :
          :   write xtbopt.log                true          :
          :   linear?                        false          :
          :   energy convergence         0.5000000E-05 Eh   :
          :   grad. convergence          0.1000000E-02 Eh/α :
          :   maximium RF displ.         1.0000000          :
          :   Hlow (freq-cutoff)         0.1000000E-01      :
          :   Hmax (freq-cutoff)         5.0000000          :
          :   S6 in model hess.         20.0000000          :
          ...................................................

generating ANC from model Hessian ...
Using Lindh-Hessian (1995)
 Shifting diagonal of input Hessian by    4.6610046898826481E-002
 Lowest  eigenvalues of input Hessian
    0.010000    0.036947    0.000000    0.000000    0.000000    0.000000
    0.000000    0.000000    0.046682    0.046785    0.047061    0.047098
    0.047209    0.047345    0.047370    0.047447    0.047511    0.047819
 Highest eigenvalues
    2.063639    2.079648    2.108013    2.314716    3.037294    3.838539


........................................................................
.............................. CYCLE    1 ..............................
........................................................................
   1   -123.7136552 -0.123714E+03  0.231E-04    0.61       0.0  T
   2   -123.7136552  0.961960E-08  0.310E-04    0.61      36.8  T
   3   -123.7136552 -0.906000E-08  0.191E-04    0.61      59.8  T
     SCC iter.                  ...        0 min,  0.027 sec
     gradient                   ...        0 min,  0.085 sec
 * total energy  :  -121.7388879 Eh     change       -0.2508727E-08 Eh
   gradient norm :     0.3725468 Eh/α   predicted     0.0000000E+00 (-100.00%)
   displ. norm   :     0.2339672 α      lambda       -0.5746753E-01
   maximum displ.:     0.0791699 α      in ANC's #114, #223, #225, ...

........................................................................
.............................. CYCLE    2 ..............................
........................................................................
   1   -123.7856667 -0.123786E+03  0.155E-01    0.62       0.0  T
   2   -123.7856406  0.261242E-04  0.120E-01    0.61       1.0  T
   3   -123.7848917  0.748848E-03  0.126E-01    0.63       1.0  T
   4   -123.7845258  0.365937E-03  0.110E-01    0.60       1.0  T
   5   -123.7858621 -0.133634E-02  0.446E-02    0.62       1.0  T
   6   -123.7859074 -0.452085E-04  0.315E-02    0.62       1.0  T
   7   -123.7859031  0.426809E-05  0.177E-02    0.61       1.0  T
   8   -123.7859182 -0.150991E-04  0.981E-03    0.62       1.2  T
   9   -123.7859201 -0.190699E-05  0.670E-03    0.62       1.7  T
  10   -123.7859207 -0.643059E-06  0.474E-03    0.62       2.4  T
  11   -123.7859213 -0.557489E-06  0.271E-03    0.62       4.2  T
  12   -123.7859214 -0.130747E-06  0.169E-03    0.62       6.8  T
  13   -123.7859215 -0.374672E-07  0.117E-03    0.62       9.7  T
  14   -123.7859215 -0.509789E-07  0.738E-04    0.62      15.4  T
  15   -123.7859215 -0.150177E-07  0.432E-04    0.62      26.4  T
     SCC iter.                  ...        0 min,  0.126 sec
     gradient                   ...        0 min,  0.086 sec
 * total energy  :  -121.7737037 Eh     change       -0.3481585E-01 Eh
   gradient norm :     0.0672282 Eh/α   predicted    -0.3031861E-01 ( -12.92%)
   displ. norm   :     0.1635617 α      lambda       -0.4959723E-02
   maximum displ.:     0.0510918 α      in ANC's #114, #1, #2, ...

........................................................................
.............................. CYCLE    3 ..............................
........................................................................
   1   -123.8305710 -0.123831E+03  0.739E-02    0.61       0.0  T
   2   -123.8305585  0.125310E-04  0.523E-02    0.61       1.0  T
   3   -123.8301817  0.376775E-03  0.611E-02    0.60       1.0  T
   4   -123.8303898 -0.208140E-03  0.413E-02    0.61       1.0  T
   5   -123.8305986 -0.208788E-03  0.119E-02    0.61       1.0  T
   6   -123.8306013 -0.270336E-05  0.879E-03    0.61       1.3  T
   7   -123.8306018 -0.468343E-06  0.429E-03    0.61       2.7  T
   8   -123.8306026 -0.829897E-06  0.201E-03    0.61       5.7  T
   9   -123.8306027 -0.530812E-07  0.148E-03    0.61       7.7  T
  10   -123.8306027 -0.386471E-07  0.109E-03    0.61      10.5  T
  11   -123.8306027 -0.138490E-07  0.676E-04    0.61      16.9  T
  12   -123.8306027  0.458027E-08  0.474E-04    0.61      24.0  T
     SCC iter.                  ...        0 min,  0.101 sec
     gradient                   ...        0 min,  0.085 sec
 * total energy  :  -121.7766667 Eh     change       -0.2963025E-02 Eh
   gradient norm :     0.0126071 Eh/α   predicted    -0.2552504E-02 ( -13.85%)
   displ. norm   :     0.1605113 α      lambda       -0.9996748E-03
   maximum displ.:     0.0888843 α      in ANC's #1, #2, #39, ...

........................................................................
.............................. CYCLE    4 ..............................
........................................................................
   1   -123.8508775 -0.123851E+03  0.957E-02    0.60       0.0  T
   2   -123.8493199  0.155761E-02  0.118E-01    0.58       1.0  T
   3   -123.8504204 -0.110051E-02  0.902E-02    0.61       1.0  T
   4   -123.8510689 -0.648525E-03  0.328E-02    0.60       1.0  T
   5   -123.8510979 -0.289836E-04  0.199E-02    0.60       1.0  T
   6   -123.8511036 -0.568795E-05  0.143E-02    0.60       1.0  T
   7   -123.8511058 -0.218045E-05  0.703E-03    0.60       1.6  T
   8   -123.8511061 -0.291187E-06  0.485E-03    0.60       2.4  T
   9   -123.8511065 -0.417334E-06  0.392E-03    0.60       2.9  T
  10   -123.8511067 -0.159086E-06  0.256E-03    0.60       4.4  T
  11   -123.8511068 -0.152984E-06  0.128E-03    0.60       8.9  T
  12   -123.8511068 -0.354962E-07  0.608E-04    0.60      18.7  T
  13   -123.8511069 -0.101253E-07  0.375E-04    0.60      30.4  T
     SCC iter.                  ...        0 min,  0.109 sec
     gradient                   ...        0 min,  0.086 sec
 * total energy  :  -121.7771302 Eh     change       -0.4635024E-03 Eh
   gradient norm :     0.0184885 Eh/α   predicted    -0.5127230E-03 (  10.62%)
   displ. norm   :     0.2929152 α      lambda       -0.1423968E-02
   maximum displ.:     0.1793608 α      in ANC's #1, #2, #39, ...

........................................................................
.............................. CYCLE    5 ..............................
........................................................................
   1   -123.8716350 -0.123872E+03  0.143E-01    0.59       0.0  T
   2   -123.8710982  0.536832E-03  0.119E-01    0.61       1.0  T
   3   -123.8694813  0.161689E-02  0.152E-01    0.57       1.0  T
   4   -123.8715611 -0.207979E-02  0.575E-02    0.59       1.0  T
   5   -123.8717623 -0.201188E-03  0.329E-02    0.59       1.0  T
   6   -123.8717803 -0.180358E-04  0.221E-02    0.59       1.0  T
   7   -123.8717934 -0.130471E-04  0.115E-02    0.59       1.0  T
   8   -123.8718005 -0.713169E-05  0.540E-03    0.59       2.1  T
   9   -123.8718008 -0.303282E-06  0.437E-03    0.59       2.6  T
  10   -123.8718008  0.229174E-07  0.307E-03    0.59       3.7  T
  11   -123.8718010 -0.200144E-06  0.165E-03    0.59       6.9  T
  12   -123.8718010 -0.578736E-07  0.112E-03    0.59      10.2  T
  13   -123.8718011 -0.350657E-07  0.623E-04    0.59      18.3  T
  14   -123.8718011 -0.482999E-08  0.410E-04    0.59      27.8  T
     SCC iter.                  ...        0 min,  0.117 sec
     gradient                   ...        0 min,  0.085 sec
 * total energy  :  -121.7773404 Eh     change       -0.2101414E-03 Eh
   gradient norm :     0.0187542 Eh/α   predicted    -0.7730747E-03 ( 267.88%)
   displ. norm   :     0.0889807 α      lambda       -0.7890014E-03
   maximum displ.:     0.0717593 α      in ANC's #1, #114, #119, ...

........................................................................
.............................. CYCLE    6 ..............................
........................................................................
   1   -123.8587710 -0.123859E+03  0.623E-02    0.60       0.0  T
   2   -123.8584077  0.363255E-03  0.684E-02    0.58       1.0  T
   3   -123.8586219 -0.214213E-03  0.525E-02    0.60       1.0  T
   4   -123.8588137 -0.191734E-03  0.204E-02    0.59       1.0  T
   5   -123.8588226 -0.893830E-05  0.147E-02    0.59       1.0  T
   6   -123.8588296 -0.701724E-05  0.943E-03    0.59       1.2  T
   7   -123.8588319 -0.225312E-05  0.422E-03    0.59       2.7  T
   8   -123.8588325 -0.613045E-06  0.244E-03    0.59       4.7  T
   9   -123.8588325 -0.460535E-07  0.199E-03    0.59       5.7  T
  10   -123.8588326 -0.264484E-07  0.127E-03    0.59       9.0  T
  11   -123.8588326 -0.310391E-07  0.641E-04    0.59      17.8  T
  12   -123.8588326 -0.880203E-08  0.390E-04    0.59      29.2  T
     SCC iter.                  ...        0 min,  0.101 sec
     gradient                   ...        0 min,  0.086 sec
 * total energy  :  -121.7778417 Eh     change       -0.5012730E-03 Eh
   gradient norm :     0.0060099 Eh/α   predicted    -0.3976814E-03 ( -20.67%)
   displ. norm   :     0.1009820 α      lambda       -0.3024542E-03
   maximum displ.:     0.0616724 α      in ANC's #2, #25, #27, ...

........................................................................
.............................. CYCLE    7 ..............................
........................................................................
   1   -123.8525543 -0.123853E+03  0.364E-02    0.60       0.0  T
   2   -123.8523071  0.247198E-03  0.509E-02    0.59       1.0  T
   3   -123.8525619 -0.254728E-03  0.247E-02    0.60       1.0  T
   4   -123.8525869 -0.250052E-04  0.999E-03    0.60       1.1  T
   5   -123.8525906 -0.371435E-05  0.713E-03    0.60       1.6  T
   6   -123.8525909 -0.355225E-06  0.458E-03    0.60       2.5  T
   7   -123.8525915 -0.544617E-06  0.268E-03    0.60       4.3  T
   8   -123.8525918 -0.359277E-06  0.166E-03    0.60       6.8  T
   9   -123.8525919 -0.289580E-07  0.125E-03    0.60       9.1  T
  10   -123.8525919 -0.384013E-07  0.871E-04    0.60      13.1  T
  11   -123.8525919 -0.114988E-07  0.482E-04    0.60      23.7  T
     SCC iter.                  ...        0 min,  0.092 sec
     gradient                   ...        0 min,  0.085 sec
 * total energy  :  -121.7780789 Eh     change       -0.2372002E-03 Eh
   gradient norm :     0.0057135 Eh/α   predicted    -0.1527977E-03 ( -35.58%)
   displ. norm   :     0.2317270 α      lambda       -0.4329675E-03
   maximum displ.:     0.1543911 α      in ANC's #2, #25, #27, ...

........................................................................
.............................. CYCLE    8 ..............................
........................................................................
   1   -123.8469589 -0.123847E+03  0.648E-02    0.61       0.0  T
   2   -123.8462239  0.735041E-03  0.896E-02    0.59       1.0  T
   3   -123.8469961 -0.772203E-03  0.438E-02    0.60       1.0  T
   4   -123.8470549 -0.588060E-04  0.185E-02    0.60       1.0  T
   5   -123.8470723 -0.174577E-04  0.116E-02    0.60       1.0  T
   6   -123.8470724 -0.711318E-07  0.668E-03    0.60       1.7  T
   7   -123.8470742 -0.175648E-05  0.388E-03    0.60       2.9  T
   8   -123.8470748 -0.595935E-06  0.252E-03    0.60       4.5  T
   9   -123.8470748 -0.636031E-07  0.175E-03    0.60       6.5  T
  10   -123.8470749 -0.755440E-07  0.132E-03    0.60       8.6  T
  11   -123.8470749 -0.257864E-07  0.707E-04    0.60      16.1  T
  12   -123.8470749 -0.342865E-08  0.476E-04    0.60      24.0  T
     SCC iter.                  ...        0 min,  0.101 sec
     gradient                   ...        0 min,  0.086 sec
 * total energy  :  -121.7783813 Eh     change       -0.3024762E-03 Eh
   gradient norm :     0.0078463 Eh/α   predicted    -0.2281211E-03 ( -24.58%)
   displ. norm   :     0.2169560 α      lambda       -0.2731380E-03
   maximum displ.:     0.1481212 α      in ANC's #2, #25, #13, ...

........................................................................
.............................. CYCLE    9 ..............................
........................................................................
   1   -123.8466658 -0.123847E+03  0.562E-02    0.61       0.0  T
   2   -123.8462347  0.431039E-03  0.721E-02    0.59       1.0  T
   3   -123.8466760 -0.441220E-03  0.392E-02    0.61       1.0  T
   4   -123.8467234 -0.474407E-04  0.168E-02    0.60       1.0  T
   5   -123.8467380 -0.145930E-04  0.959E-03    0.60       1.2  T
   6   -123.8467382 -0.247684E-06  0.497E-03    0.60       2.3  T
   7   -123.8467394 -0.117509E-05  0.261E-03    0.60       4.4  T
   8   -123.8467396 -0.191311E-06  0.161E-03    0.60       7.1  T
   9   -123.8467396 -0.195294E-07  0.113E-03    0.60      10.1  T
  10   -123.8467397 -0.366580E-07  0.810E-04    0.60      14.1  T
  11   -123.8467397 -0.101635E-07  0.546E-04    0.60      20.9  T
     SCC iter.                  ...        0 min,  0.093 sec
     gradient                   ...        0 min,  0.086 sec
 * total energy  :  -121.7785845 Eh     change       -0.2031955E-03 Eh
   gradient norm :     0.0070880 Eh/α   predicted    -0.1430066E-03 ( -29.62%)
   displ. norm   :     0.2300217 α      lambda       -0.2679501E-03
   maximum displ.:     0.1500907 α      in ANC's #2, #25, #13, ...

........................................................................
.............................. CYCLE   10 ..............................
........................................................................
   1   -123.8493803 -0.123849E+03  0.588E-02    0.61       0.0  T
   2   -123.8490345  0.345853E-03  0.683E-02    0.59       1.0  T
   3   -123.8493433 -0.308844E-03  0.433E-02    0.61       1.0  T
   4   -123.8494284 -0.851094E-04  0.178E-02    0.60       1.0  T
   5   -123.8494431 -0.146713E-04  0.986E-03    0.60       1.2  T
   6   -123.8494435 -0.445032E-06  0.475E-03    0.60       2.4  T
   7   -123.8494446 -0.101391E-05  0.220E-03    0.60       5.2  T
   8   -123.8494446 -0.712183E-07  0.138E-03    0.60       8.3  T
   9   -123.8494447 -0.314647E-07  0.912E-04    0.60      12.5  T
  10   -123.8494447 -0.272848E-07  0.566E-04    0.60      20.1  T
     SCC iter.                  ...        0 min,  0.084 sec
     gradient                   ...        0 min,  0.086 sec
 * total energy  :  -121.7787803 Eh     change       -0.1957369E-03 Eh
   gradient norm :     0.0052682 Eh/α   predicted    -0.1410663E-03 ( -27.93%)
   displ. norm   :     0.2048611 α      lambda       -0.2263647E-03
   maximum displ.:     0.1128660 α      in ANC's #2, #25, #13, ...

........................................................................
.............................. CYCLE   11 ..............................
........................................................................
   1   -123.8528132 -0.123853E+03  0.519E-02    0.61       0.0  T
   2   -123.8525863  0.226869E-03  0.560E-02    0.60       1.0  T
   3   -123.8527401 -0.153848E-03  0.404E-02    0.61       1.0  T
   4   -123.8528475 -0.107376E-03  0.146E-02    0.60       1.0  T
   5   -123.8528558 -0.828935E-05  0.858E-03    0.60       1.3  T
   6   -123.8528561 -0.259721E-06  0.395E-03    0.61       2.9  T
   7   -123.8528567 -0.635289E-06  0.169E-03    0.61       6.7  T
   8   -123.8528567 -0.164778E-07  0.108E-03    0.61      10.6  T
   9   -123.8528567 -0.262608E-07  0.602E-04    0.61      18.9  T
  10   -123.8528567 -0.919528E-09  0.434E-04    0.61      26.3  T
     SCC iter.                  ...        0 min,  0.085 sec
     gradient                   ...        0 min,  0.086 sec
 * total energy  :  -121.7789469 Eh     change       -0.1666309E-03 Eh
   gradient norm :     0.0042009 Eh/α   predicted    -0.1179387E-03 ( -29.22%)
   displ. norm   :     0.1959795 α      lambda       -0.1962614E-03
   maximum displ.:     0.0863075 α      in ANC's #25, #2, #13, ...

........................................................................
.............................. CYCLE   12 ..............................
........................................................................
   1   -123.8546821 -0.123855E+03  0.480E-02    0.61       0.0  T
   2   -123.8544847  0.197352E-03  0.505E-02    0.60       1.0  T
   3   -123.8545968 -0.112118E-03  0.383E-02    0.61       1.0  T
   4   -123.8547138 -0.117009E-03  0.117E-02    0.60       1.0  T
   5   -123.8547183 -0.449163E-05  0.733E-03    0.60       1.6  T
   6   -123.8547184 -0.902204E-07  0.372E-03    0.60       3.1  T
   7   -123.8547189 -0.439504E-06  0.163E-03    0.60       7.0  T
   8   -123.8547189 -0.203392E-07  0.105E-03    0.60      10.8  T
   9   -123.8547189 -0.363349E-07  0.608E-04    0.60      18.8  T
  10   -123.8547189 -0.409013E-08  0.449E-04    0.60      25.4  T
     SCC iter.                  ...        0 min,  0.085 sec
     gradient                   ...        0 min,  0.086 sec
 * total energy  :  -121.7790893 Eh     change       -0.1424436E-03 Eh
   gradient norm :     0.0035494 Eh/α   predicted    -0.1019018E-03 ( -28.46%)
   displ. norm   :     0.1834708 α      lambda       -0.1536426E-03
   maximum displ.:     0.0828762 α      in ANC's #25, #13, #5, ...

........................................................................
.............................. CYCLE   13 ..............................
........................................................................
   1   -123.8541646 -0.123854E+03  0.424E-02    0.61       0.0  T
   2   -123.8539979  0.166752E-03  0.449E-02    0.59       1.0  T
   3   -123.8540953 -0.974038E-04  0.336E-02    0.61       1.0  T
   4   -123.8541920 -0.967439E-04  0.894E-03    0.60       1.3  T
   5   -123.8541946 -0.257952E-05  0.580E-03    0.60       2.0  T
   6   -123.8541946  0.126890E-08  0.339E-03    0.60       3.4  T
   7   -123.8541949 -0.340231E-06  0.159E-03    0.60       7.2  T
   8   -123.8541950 -0.434453E-07  0.975E-04    0.60      11.7  T
   9   -123.8541950 -0.252624E-07  0.610E-04    0.60      18.7  T
     SCC iter.                  ...        0 min,  0.076 sec
     gradient                   ...        0 min,  0.085 sec
 * total energy  :  -121.7792014 Eh     change       -0.1120880E-03 Eh
   gradient norm :     0.0032364 Eh/α   predicted    -0.7940999E-04 ( -29.15%)
   displ. norm   :     0.1776960 α      lambda       -0.1322025E-03
   maximum displ.:     0.0771786 α      in ANC's #5, #25, #13, ...

........................................................................
.............................. CYCLE   14 ..............................
........................................................................
   1   -123.8523795 -0.123852E+03  0.391E-02    0.60       0.0  T
   2   -123.8522489  0.130566E-03  0.400E-02    0.59       1.0  T
   3   -123.8523073 -0.583784E-04  0.318E-02    0.61       1.0  T
   4   -123.8524011 -0.937778E-04  0.701E-03    0.60       1.6  T
   5   -123.8524029 -0.184545E-05  0.466E-03    0.60       2.4  T
   6   -123.8524029  0.134151E-07  0.298E-03    0.60       3.8  T
   7   -123.8524032 -0.239659E-06  0.166E-03    0.60       6.9  T
   8   -123.8524032 -0.586256E-07  0.105E-03    0.60      10.9  T
   9   -123.8524032 -0.182989E-07  0.723E-04    0.60      15.8  T
  10   -123.8524032  0.161488E-08  0.628E-04    0.60      18.1  T
     SCC iter.                  ...        0 min,  0.084 sec
     gradient                   ...        0 min,  0.086 sec
 * total energy  :  -121.7792989 Eh     change       -0.9749065E-04 Eh
   gradient norm :     0.0033042 Eh/α   predicted    -0.6819341E-04 ( -30.05%)
   displ. norm   :     0.1858011 α      lambda       -0.1275406E-03
   maximum displ.:     0.0874332 α      in ANC's #5, #13, #25, ...

........................................................................
.............................. CYCLE   15 ..............................
........................................................................
   1   -123.8506714 -0.123851E+03  0.393E-02    0.60       0.0  T
   2   -123.8505890  0.823790E-04  0.349E-02    0.59       1.0  T
   3   -123.8505418  0.472478E-04  0.364E-02    0.61       1.0  T
   4   -123.8506855 -0.143754E-03  0.580E-03    0.60       2.0  T
   5   -123.8506866 -0.110465E-05  0.414E-03    0.60       2.8  T
   6   -123.8506865  0.975441E-07  0.272E-03    0.60       4.2  T
   7   -123.8506868 -0.249657E-06  0.180E-03    0.60       6.3  T
   8   -123.8506869 -0.779891E-07  0.113E-03    0.60      10.1  T
   9   -123.8506869 -0.168958E-07  0.801E-04    0.60      14.2  T
  10   -123.8506869  0.404290E-08  0.682E-04    0.60      16.7  T
     SCC iter.                  ...        0 min,  0.085 sec
     gradient                   ...        0 min,  0.086 sec
 * total energy  :  -121.7793931 Eh     change       -0.9414924E-04 Eh
   gradient norm :     0.0035692 Eh/α   predicted    -0.6597264E-04 ( -29.93%)
   displ. norm   :     0.1819897 α      lambda       -0.1254659E-03
   maximum displ.:     0.0918905 α      in ANC's #5, #13, #9, ...

........................................................................
.............................. CYCLE   16 ..............................
........................................................................
   1   -123.8502093 -0.123850E+03  0.381E-02    0.60       0.0  T
   2   -123.8501715  0.377947E-04  0.288E-02    0.59       1.0  T
   3   -123.8500088  0.162779E-03  0.411E-02    0.61       1.0  T
   4   -123.8502155 -0.206729E-03  0.482E-03    0.60       2.4  T
   5   -123.8502166 -0.108718E-05  0.346E-03    0.60       3.3  T
   6   -123.8502166  0.195920E-07  0.248E-03    0.60       4.6  T
   7   -123.8502167 -0.194434E-06  0.157E-03    0.60       7.3  T
   8   -123.8502168 -0.557353E-07  0.107E-03    0.60      10.7  T
   9   -123.8502168 -0.124268E-07  0.781E-04    0.60      14.6  T
  10   -123.8502168  0.696014E-08  0.631E-04    0.60      18.1  T
     SCC iter.                  ...        0 min,  0.083 sec
     gradient                   ...        0 min,  0.086 sec
 * total energy  :  -121.7794824 Eh     change       -0.8937789E-04 Eh
   gradient norm :     0.0041713 Eh/α   predicted    -0.6481299E-04 ( -27.48%)
   displ. norm   :     0.2389882 α      lambda       -0.1267959E-03
   maximum displ.:     0.1206667 α      in ANC's #5, #13, #9, ...

........................................................................
.............................. CYCLE   17 ..............................
........................................................................
   1   -123.8509462 -0.123851E+03  0.445E-02    0.60       0.0  T
   2   -123.8509255  0.206942E-04  0.300E-02    0.60       1.0  T
   3   -123.8506175  0.308085E-03  0.504E-02    0.61       1.0  T
   4   -123.8509506 -0.333159E-03  0.764E-03    0.60       1.5  T
   5   -123.8509526 -0.197943E-05  0.509E-03    0.60       2.2  T
   6   -123.8509525  0.477201E-07  0.381E-03    0.60       3.0  T
   7   -123.8509530 -0.437143E-06  0.219E-03    0.60       5.2  T
   8   -123.8509531 -0.932915E-07  0.116E-03    0.60       9.8  T
   9   -123.8509531 -0.127154E-07  0.822E-04    0.60      13.9  T
  10   -123.8509531 -0.105660E-07  0.550E-04    0.60      20.7  T
     SCC iter.                  ...        0 min,  0.084 sec
     gradient                   ...        0 min,  0.086 sec
 * total energy  :  -121.7795486 Eh     change       -0.6615690E-04 Eh
   gradient norm :     0.0077344 Eh/α   predicted    -0.6702008E-04 (   1.30%)
   displ. norm   :     0.1660425 α      lambda       -0.1545667E-03
   maximum displ.:     0.0864314 α      in ANC's #5, #7, #13, ...

........................................................................
.............................. CYCLE   18 ..............................
........................................................................
   1   -123.8537700 -0.123854E+03  0.352E-02    0.60       0.0  T
   2   -123.8537694  0.582798E-06  0.220E-02    0.60       1.0  T
   3   -123.8537120  0.574236E-04  0.227E-02    0.61       1.0  T
   4   -123.8537619 -0.499193E-04  0.924E-03    0.60       1.2  T
   5   -123.8537718 -0.989297E-05  0.389E-03    0.60       2.9  T
   6   -123.8537720 -0.174619E-06  0.265E-03    0.60       4.3  T
   7   -123.8537723 -0.243992E-06  0.126E-03    0.60       9.1  T
   8   -123.8537723 -0.817774E-08  0.926E-04    0.60      12.3  T
   9   -123.8537723 -0.117731E-07  0.669E-04    0.60      17.0  T
     SCC iter.                  ...        0 min,  0.075 sec
     gradient                   ...        0 min,  0.086 sec
 * total energy  :  -121.7796186 Eh     change       -0.6999957E-04 Eh
   gradient norm :     0.0077051 Eh/α   predicted    -0.7942037E-04 (  13.46%)
   displ. norm   :     0.0787536 α      lambda       -0.7845394E-04
   maximum displ.:     0.0407068 α      in ANC's #5, #13, #2, ...

........................................................................
.............................. CYCLE   19 ..............................
........................................................................
   1   -123.8549183 -0.123855E+03  0.153E-02    0.60       0.0  T
   2   -123.8549141  0.411970E-05  0.112E-02    0.60       1.0  T
   3   -123.8548839  0.301984E-04  0.168E-02    0.61       1.0  T
   4   -123.8549188 -0.348766E-04  0.284E-03    0.60       4.0  T
   5   -123.8549193 -0.461605E-06  0.171E-03    0.60       6.7  T
   6   -123.8549193 -0.495398E-08  0.913E-04    0.60      12.5  T
   7   -123.8549193 -0.279077E-07  0.386E-04    0.60      29.5  T
     SCC iter.                  ...        0 min,  0.060 sec
     gradient                   ...        0 min,  0.086 sec
 * total energy  :  -121.7796866 Eh     change       -0.6799490E-04 Eh
   gradient norm :     0.0052052 Eh/α   predicted    -0.3947200E-04 ( -41.95%)
   displ. norm   :     0.2971522 α      lambda       -0.2175089E-03
   maximum displ.:     0.1649265 α      in ANC's #5, #13, #9, ...

........................................................................
.............................. CYCLE   20 ..............................
........................................................................
   1   -123.8566188 -0.123857E+03  0.511E-02    0.60       0.0  T
   2   -123.8565422  0.765775E-04  0.392E-02    0.59       1.0  T
   3   -123.8562839  0.258324E-03  0.539E-02    0.61       1.0  T
   4   -123.8566313 -0.347379E-03  0.654E-03    0.60       1.7  T
   5   -123.8566335 -0.227378E-05  0.392E-03    0.60       2.9  T
   6   -123.8566336 -0.753470E-07  0.236E-03    0.60       4.8  T
   7   -123.8566337 -0.789975E-07  0.102E-03    0.60      11.2  T
   8   -123.8566337 -0.100894E-07  0.642E-04    0.60      17.7  T
   9   -123.8566337 -0.193488E-08  0.494E-04    0.60      23.1  T
     SCC iter.                  ...        0 min,  0.075 sec
     gradient                   ...        0 min,  0.086 sec
 * total energy  :  -121.7798310 Eh     change       -0.1444360E-03 Eh
   gradient norm :     0.0034708 Eh/α   predicted    -0.1183600E-03 ( -18.05%)
   displ. norm   :     0.2648399 α      lambda       -0.1017345E-03
   maximum displ.:     0.1524189 α      in ANC's #5, #13, #9, ...
 * RMSD in coord.:     0.3212227 α      energy gain  -0.4094317E-01 Eh

generating ANC from model Hessian ...
Using Lindh-Hessian (1995)
 Shifting diagonal of input Hessian by    1.3133251196272981E-002
 Lowest  eigenvalues of input Hessian
    0.010000    0.011491    0.000000    0.000000    0.000000    0.000000
    0.000000    0.000000    0.013153    0.013197    0.013282    0.013581
    0.013643    0.013782    0.013919    0.013959    0.014033    0.014116
 Highest eigenvalues
    2.114785    2.130636    2.162119    2.271835    3.230171    3.731418


........................................................................
.............................. CYCLE   21 ..............................
........................................................................
   1   -123.8562411 -0.123856E+03  0.413E-02    0.60       0.0  T
   2   -123.8561744  0.667069E-04  0.332E-02    0.59       1.0  T
   3   -123.8560455  0.128960E-03  0.421E-02    0.61       1.0  T
   4   -123.8562523 -0.206770E-03  0.375E-03    0.60       3.0  T
   5   -123.8562530 -0.749984E-06  0.221E-03    0.60       5.2  T
   6   -123.8562530 -0.426340E-07  0.149E-03    0.60       7.6  T
   7   -123.8562531 -0.159928E-07  0.724E-04    0.60      15.7  T
   8   -123.8562531 -0.103506E-07  0.422E-04    0.60      27.0  T
     SCC iter.                  ...        0 min,  0.067 sec
     gradient                   ...        0 min,  0.086 sec
 * total energy  :  -121.7799135 Eh     change       -0.8251578E-04 Eh
   gradient norm :     0.0040934 Eh/α   predicted     0.0000000E+00 (-100.00%)
   displ. norm   :     0.0912477 α      lambda       -0.1362683E-03
   maximum displ.:     0.0691148 α      in ANC's #1, #4, #6, ...

........................................................................
.............................. CYCLE   22 ..............................
........................................................................
   1   -123.8546566 -0.123855E+03  0.273E-02    0.60       0.0  T
   2   -123.8546458  0.108512E-04  0.201E-02    0.60       1.0  T
   3   -123.8545599  0.859248E-04  0.290E-02    0.59       1.0  T
   4   -123.8546582 -0.983048E-04  0.874E-03    0.60       1.3  T
   5   -123.8546616 -0.339147E-05  0.566E-03    0.60       2.0  T
   6   -123.8546614  0.119505E-06  0.367E-03    0.60       3.1  T
   7   -123.8546620 -0.526136E-06  0.207E-03    0.60       5.5  T
   8   -123.8546619  0.630812E-07  0.169E-03    0.60       6.8  T
   9   -123.8546620 -0.104095E-06  0.110E-03    0.60      10.3  T
  10   -123.8546620 -0.132850E-07  0.811E-04    0.60      14.0  T
  11   -123.8546620 -0.662614E-08  0.474E-04    0.60      24.0  T
     SCC iter.                  ...        0 min,  0.092 sec
     gradient                   ...        0 min,  0.086 sec
 * total energy  :  -121.7800206 Eh     change       -0.1070719E-03 Eh
   gradient norm :     0.0027626 Eh/α   predicted    -0.7123370E-04 ( -33.47%)
   displ. norm   :     0.1532755 α      lambda       -0.1522061E-03
   maximum displ.:     0.0921944 α      in ANC's #1, #4, #5, ...

........................................................................
.............................. CYCLE   23 ..............................
........................................................................
   1   -123.8524787 -0.123852E+03  0.401E-02    0.59       0.0  T
   2   -123.8523016  0.177086E-03  0.472E-02    0.61       1.0  T
   3   -123.8524679 -0.166287E-03  0.269E-02    0.59       1.0  T
   4   -123.8525042 -0.362550E-04  0.125E-02    0.60       1.0  T
   5   -123.8525151 -0.108713E-04  0.733E-03    0.60       1.6  T
   6   -123.8525153 -0.290580E-06  0.465E-03    0.60       2.5  T
   7   -123.8525161 -0.742690E-06  0.208E-03    0.60       5.5  T
   8   -123.8525162 -0.692136E-07  0.139E-03    0.60       8.2  T
   9   -123.8525162 -0.274147E-07  0.797E-04    0.60      14.3  T
  10   -123.8525162 -0.444032E-08  0.661E-04    0.60      17.2  T
     SCC iter.                  ...        0 min,  0.083 sec
     gradient                   ...        0 min,  0.085 sec
 * total energy  :  -121.7801262 Eh     change       -0.1055782E-03 Eh
   gradient norm :     0.0030730 Eh/α   predicted    -0.7792884E-04 ( -26.19%)
   displ. norm   :     0.1584498 α      lambda       -0.9111029E-04
   maximum displ.:     0.0800961 α      in ANC's #4, #1, #5, ...

........................................................................
.............................. CYCLE   24 ..............................
........................................................................
   1   -123.8523419 -0.123852E+03  0.353E-02    0.59       0.0  T
   2   -123.8521910  0.150961E-03  0.435E-02    0.60       1.0  T
   3   -123.8523457 -0.154673E-03  0.223E-02    0.59       1.0  T
   4   -123.8523623 -0.166243E-04  0.115E-02    0.60       1.0  T
   5   -123.8523723 -0.100133E-04  0.639E-03    0.60       1.8  T
   6   -123.8523725 -0.182158E-06  0.411E-03    0.60       2.8  T
   7   -123.8523730 -0.554528E-06  0.190E-03    0.60       6.0  T
   8   -123.8523731 -0.478783E-07  0.133E-03    0.60       8.6  T
   9   -123.8523731 -0.260938E-07  0.808E-04    0.60      14.1  T
  10   -123.8523731  0.868951E-09  0.663E-04    0.60      17.2  T
     SCC iter.                  ...        0 min,  0.083 sec
     gradient                   ...        0 min,  0.086 sec
 * total energy  :  -121.7801944 Eh     change       -0.6820330E-04 Eh
   gradient norm :     0.0035140 Eh/α   predicted    -0.4670000E-04 ( -31.53%)
   displ. norm   :     0.2200654 α      lambda       -0.1043984E-03
   maximum displ.:     0.1237741 α      in ANC's #4, #5, #1, ...

........................................................................
.............................. CYCLE   25 ..............................
........................................................................
   1   -123.8530749 -0.123853E+03  0.433E-02    0.59       0.0  T
   2   -123.8528573  0.217606E-03  0.524E-02    0.61       1.0  T
   3   -123.8530715 -0.214181E-03  0.281E-02    0.59       1.0  T
   4   -123.8531043 -0.328188E-04  0.129E-02    0.60       1.0  T
   5   -123.8531172 -0.128993E-04  0.708E-03    0.59       1.6  T
   6   -123.8531173 -0.155738E-06  0.461E-03    0.59       2.5  T
   7   -123.8531181 -0.705759E-06  0.211E-03    0.59       5.4  T
   8   -123.8531181 -0.721096E-07  0.140E-03    0.59       8.1  T
   9   -123.8531182 -0.343257E-07  0.847E-04    0.59      13.5  T
  10   -123.8531182  0.661359E-09  0.674E-04    0.59      16.9  T
     SCC iter.                  ...        0 min,  0.083 sec
     gradient                   ...        0 min,  0.086 sec
 * total energy  :  -121.7802741 Eh     change       -0.7975024E-04 Eh
   gradient norm :     0.0030624 Eh/α   predicted    -0.5472868E-04 ( -31.37%)
   displ. norm   :     0.2681933 α      lambda       -0.1123069E-03
   maximum displ.:     0.1584167 α      in ANC's #4, #5, #6, ...

........................................................................
.............................. CYCLE   26 ..............................
........................................................................
   1   -123.8541292 -0.123854E+03  0.469E-02    0.59       0.0  T
   2   -123.8539462  0.183025E-03  0.501E-02    0.60       1.0  T
   3   -123.8540660 -0.119769E-03  0.346E-02    0.59       1.0  T
   4   -123.8541548 -0.888201E-04  0.113E-02    0.60       1.0  T
   5   -123.8541640 -0.920952E-05  0.656E-03    0.59       1.7  T
   6   -123.8541640  0.534826E-07  0.424E-03    0.59       2.7  T
   7   -123.8541646 -0.652978E-06  0.208E-03    0.59       5.5  T
   8   -123.8541647 -0.113101E-06  0.130E-03    0.59       8.7  T
   9   -123.8541648 -0.349830E-07  0.800E-04    0.59      14.2  T
  10   -123.8541648 -0.190404E-08  0.617E-04    0.59      18.5  T
     SCC iter.                  ...        0 min,  0.083 sec
     gradient                   ...        0 min,  0.086 sec
 * total energy  :  -121.7803629 Eh     change       -0.8877154E-04 Eh
   gradient norm :     0.0028974 Eh/α   predicted    -0.6020432E-04 ( -32.18%)
   displ. norm   :     0.2866918 α      lambda       -0.1129214E-03
   maximum displ.:     0.1716519 α      in ANC's #4, #5, #6, ...

........................................................................
.............................. CYCLE   27 ..............................
........................................................................
   1   -123.8548022 -0.123855E+03  0.447E-02    0.59       0.0  T
   2   -123.8547418  0.604220E-04  0.360E-02    0.60       1.0  T
   3   -123.8545591  0.182690E-03  0.462E-02    0.59       1.0  T
   4   -123.8548107 -0.251579E-03  0.781E-03    0.60       1.5  T
   5   -123.8548146 -0.385971E-05  0.466E-03    0.59       2.4  T
   6   -123.8548146 -0.254533E-07  0.247E-03    0.59       4.6  T
   7   -123.8548147 -0.165847E-06  0.123E-03    0.59       9.3  T
   8   -123.8548148 -0.131823E-07  0.834E-04    0.59      13.7  T
   9   -123.8548148 -0.249944E-07  0.533E-04    0.59      21.4  T
     SCC iter.                  ...        0 min,  0.075 sec
     gradient                   ...        0 min,  0.086 sec
 * total energy  :  -121.7804540 Eh     change       -0.9107563E-04 Eh
   gradient norm :     0.0040445 Eh/α   predicted    -0.6110154E-04 ( -32.91%)
   displ. norm   :     0.3334797 α      lambda       -0.1183534E-03
   maximum displ.:     0.1993090 α      in ANC's #4, #5, #6, ...

........................................................................
.............................. CYCLE   28 ..............................
........................................................................
   1   -123.8547341 -0.123855E+03  0.480E-02    0.59       0.0  T
   2   -123.8547235  0.105913E-04  0.306E-02    0.60       1.0  T
   3   -123.8543561  0.367412E-03  0.526E-02    0.58       1.0  T
   4   -123.8547337 -0.377625E-03  0.725E-03    0.60       1.6  T
   5   -123.8547380 -0.425806E-05  0.348E-03    0.59       3.3  T
   6   -123.8547379  0.897310E-07  0.249E-03    0.59       4.6  T
   7   -123.8547381 -0.210061E-06  0.107E-03    0.59      10.7  T
   8   -123.8547381 -0.245183E-07  0.736E-04    0.59      15.5  T
   9   -123.8547382 -0.805954E-08  0.489E-04    0.59      23.3  T
     SCC iter.                  ...        0 min,  0.075 sec
     gradient                   ...        0 min,  0.086 sec
 * total energy  :  -121.7805509 Eh     change       -0.9691998E-04 Eh
   gradient norm :     0.0040184 Eh/α   predicted    -0.6575887E-04 ( -32.15%)
   displ. norm   :     0.3012078 α      lambda       -0.1167267E-03
   maximum displ.:     0.1797322 α      in ANC's #4, #5, #6, ...

........................................................................
.............................. CYCLE   29 ..............................
........................................................................
   1   -123.8545550 -0.123855E+03  0.437E-02    0.60       0.0  T
   2   -123.8544864  0.685945E-04  0.355E-02    0.59       1.0  T
   3   -123.8543496  0.136845E-03  0.432E-02    0.61       1.0  T
   4   -123.8545620 -0.212413E-03  0.740E-03    0.60       1.5  T
   5   -123.8545679 -0.594682E-05  0.281E-03    0.60       4.0  T
   6   -123.8545680 -0.550644E-07  0.206E-03    0.60       5.5  T
   7   -123.8545681 -0.759702E-07  0.891E-04    0.60      12.8  T
   8   -123.8545681 -0.103605E-07  0.499E-04    0.60      22.8  T
     SCC iter.                  ...        0 min,  0.068 sec
     gradient                   ...        0 min,  0.086 sec
 * total energy  :  -121.7806496 Eh     change       -0.9866260E-04 Eh
   gradient norm :     0.0074028 Eh/α   predicted    -0.6366011E-04 ( -35.48%)
   displ. norm   :     0.3896787 α      lambda       -0.1685366E-03
   maximum displ.:     0.2369228 α      in ANC's #5, #4, #6, ...

........................................................................
.............................. CYCLE   30 ..............................
........................................................................
   1   -123.8539523 -0.123854E+03  0.570E-02    0.60       0.0  T
   2   -123.8538108  0.141558E-03  0.484E-02    0.59       1.0  T
   3   -123.8536492  0.161539E-03  0.539E-02    0.61       1.0  T
   4   -123.8539711 -0.321848E-03  0.866E-03    0.60       1.3  T
   5   -123.8539781 -0.704035E-05  0.375E-03    0.60       3.0  T
   6   -123.8539782 -0.435923E-07  0.277E-03    0.60       4.1  T
   7   -123.8539783 -0.140185E-06  0.141E-03    0.60       8.1  T
   8   -123.8539784 -0.453760E-07  0.694E-04    0.60      16.4  T
   9   -123.8539784 -0.642228E-08  0.460E-04    0.60      24.8  T
     SCC iter.                  ...        0 min,  0.076 sec
     gradient                   ...        0 min,  0.086 sec
 * total energy  :  -121.7807923 Eh     change       -0.1427195E-03 Eh
   gradient norm :     0.0038987 Eh/α   predicted    -0.9706505E-04 ( -31.99%)
   displ. norm   :     0.4949164 α      lambda       -0.2184305E-03
   maximum displ.:     0.3019870 α      in ANC's #5, #4, #6, ...

........................................................................
.............................. CYCLE   31 ..............................
........................................................................
   1   -123.8528572 -0.123853E+03  0.802E-02    0.60       0.0  T
   2   -123.8521888  0.668410E-03  0.886E-02    0.58       1.0  T
   3   -123.8526774 -0.488636E-03  0.588E-02    0.61       1.0  T
   4   -123.8529609 -0.283447E-03  0.140E-02    0.60       1.0  T
   5   -123.8529723 -0.114568E-04  0.870E-03    0.60       1.3  T
   6   -123.8529724 -0.578761E-07  0.581E-03    0.60       2.0  T
   7   -123.8529735 -0.111964E-05  0.270E-03    0.60       4.2  T
   8   -123.8529736 -0.131920E-06  0.145E-03    0.60       7.9  T
   9   -123.8529737 -0.358608E-07  0.817E-04    0.60      13.9  T
  10   -123.8529737 -0.327241E-07  0.458E-04    0.60      24.9  T
     SCC iter.                  ...        0 min,  0.084 sec
     gradient                   ...        0 min,  0.086 sec
 * total energy  :  -121.7809837 Eh     change       -0.1913932E-03 Eh
   gradient norm :     0.0039018 Eh/α   predicted    -0.1359747E-03 ( -28.96%)
   displ. norm   :     0.5652790 α      lambda       -0.2478758E-03
   maximum displ.:     0.3472081 α      in ANC's #5, #4, #1, ...

........................................................................
.............................. CYCLE   32 ..............................
........................................................................
   1   -123.8519963 -0.123852E+03  0.936E-02    0.60       0.0  T
   2   -123.8511076  0.888657E-03  0.102E-01    0.58       1.0  T
   3   -123.8517552 -0.647598E-03  0.686E-02    0.61       1.0  T
   4   -123.8521433 -0.388030E-03  0.155E-02    0.59       1.0  T
   5   -123.8521527 -0.939995E-05  0.106E-02    0.59       1.1  T
   6   -123.8521526  0.103202E-06  0.652E-03    0.59       1.7  T
   7   -123.8521542 -0.159418E-05  0.330E-03    0.59       3.5  T
   8   -123.8521544 -0.247793E-06  0.175E-03    0.59       6.5  T
   9   -123.8521544 -0.261202E-07  0.109E-03    0.59      10.4  T
  10   -123.8521545 -0.794638E-07  0.581E-04    0.59      19.6  T
  11   -123.8521545 -0.573424E-08  0.378E-04    0.59      30.2  T
     SCC iter.                  ...        0 min,  0.092 sec
     gradient                   ...        0 min,  0.086 sec
 * total energy  :  -121.7811920 Eh     change       -0.2082939E-03 Eh
   gradient norm :     0.0072097 Eh/α   predicted    -0.1635413E-03 ( -21.49%)
   displ. norm   :     0.5387283 α      lambda       -0.2229202E-03
   maximum displ.:     0.3345803 α      in ANC's #5, #4, #6, ...

........................................................................
.............................. CYCLE   33 ..............................
........................................................................
   1   -123.8515169 -0.123852E+03  0.869E-02    0.60       0.0  T
   2   -123.8508849  0.631976E-03  0.888E-02    0.57       1.0  T
   3   -123.8512115 -0.326581E-03  0.676E-02    0.61       1.0  T
   4   -123.8516244 -0.412925E-03  0.127E-02    0.59       1.0  T
   5   -123.8516312 -0.673249E-05  0.902E-03    0.59       1.3  T
   6   -123.8516315 -0.376967E-06  0.524E-03    0.59       2.2  T
   7   -123.8516322 -0.646979E-06  0.279E-03    0.59       4.1  T
   8   -123.8516324 -0.262592E-06  0.145E-03    0.59       7.8  T
   9   -123.8516324 -0.749597E-08  0.988E-04    0.59      11.5  T
  10   -123.8516325 -0.511604E-07  0.549E-04    0.59      20.7  T
     SCC iter.                  ...        0 min,  0.084 sec
     gradient                   ...        0 min,  0.086 sec
 * total energy  :  -121.7813785 Eh     change       -0.1864715E-03 Eh
   gradient norm :     0.0094060 Eh/α   predicted    -0.1438095E-03 ( -22.88%)
   displ. norm   :     0.5140744 α      lambda       -0.2273896E-03
   maximum displ.:     0.3238430 α      in ANC's #5, #4, #6, ...

........................................................................
.............................. CYCLE   34 ..............................
........................................................................
   1   -123.8523094 -0.123852E+03  0.789E-02    0.59       0.0  T
   2   -123.8519559  0.353512E-03  0.713E-02    0.57       1.0  T
   3   -123.8518794  0.764756E-04  0.688E-02    0.60       1.0  T
   4   -123.8523687 -0.489276E-03  0.106E-02    0.59       1.1  T
   5   -123.8523759 -0.719960E-05  0.734E-03    0.59       1.6  T
   6   -123.8523763 -0.467352E-06  0.492E-03    0.59       2.3  T
   7   -123.8523765 -0.180179E-06  0.280E-03    0.59       4.1  T
   8   -123.8523769 -0.373526E-06  0.155E-03    0.59       7.4  T
   9   -123.8523769 -0.312276E-08  0.117E-03    0.59       9.7  T
  10   -123.8523769 -0.364373E-07  0.804E-04    0.59      14.2  T
  11   -123.8523769 -0.620679E-08  0.543E-04    0.59      21.0  T
     SCC iter.                  ...        0 min,  0.093 sec
     gradient                   ...        0 min,  0.086 sec
 * total energy  :  -121.7815640 Eh     change       -0.1855845E-03 Eh
   gradient norm :     0.0053720 Eh/α   predicted    -0.1437436E-03 ( -22.55%)
   displ. norm   :     0.5759776 α      lambda       -0.1947914E-03
   maximum displ.:     0.3679038 α      in ANC's #5, #4, #6, ...

........................................................................
.............................. CYCLE   35 ..............................
........................................................................
   1   -123.8531807 -0.123853E+03  0.859E-02    0.59       0.0  T
   2   -123.8528898  0.290929E-03  0.706E-02    0.57       1.0  T
   3   -123.8524836  0.406134E-03  0.812E-02    0.61       1.0  T
   4   -123.8532303 -0.746680E-03  0.106E-02    0.59       1.1  T
   5   -123.8532379 -0.763414E-05  0.713E-03    0.59       1.6  T
   6   -123.8532381 -0.158345E-06  0.481E-03    0.58       2.4  T
   7   -123.8532383 -0.167177E-06  0.283E-03    0.58       4.0  T
   8   -123.8532387 -0.463556E-06  0.149E-03    0.59       7.6  T
   9   -123.8532387  0.623709E-08  0.115E-03    0.59       9.9  T
  10   -123.8532388 -0.512471E-07  0.740E-04    0.59      15.4  T
  11   -123.8532388 -0.477735E-08  0.531E-04    0.59      21.5  T
     SCC iter.                  ...        0 min,  0.092 sec
     gradient                   ...        0 min,  0.086 sec
 * total energy  :  -121.7817296 Eh     change       -0.1655703E-03 Eh
   gradient norm :     0.0040474 Eh/α   predicted    -0.1297114E-03 ( -21.66%)
   displ. norm   :     0.6133874 α      lambda       -0.1901323E-03
   maximum displ.:     0.3967584 α      in ANC's #5, #4, #6, ...

........................................................................
.............................. CYCLE   36 ..............................
........................................................................
   1   -123.8540307 -0.123854E+03  0.896E-02    0.59       0.0  T
   2   -123.8538110  0.219690E-03  0.681E-02    0.57       1.0  T
   3   -123.8530810  0.729942E-03  0.904E-02    0.61       1.0  T
   4   -123.8540693 -0.988290E-03  0.966E-03    0.58       1.2  T
   5   -123.8540756 -0.624342E-05  0.632E-03    0.58       1.8  T
   6   -123.8540755  0.728972E-07  0.430E-03    0.58       2.7  T
   7   -123.8540757 -0.228065E-06  0.250E-03    0.58       4.6  T
   8   -123.8540761 -0.362024E-06  0.125E-03    0.58       9.2  T
   9   -123.8540761  0.171462E-08  0.101E-03    0.58      11.3  T
  10   -123.8540761 -0.528282E-07  0.575E-04    0.58      19.8  T
  11   -123.8540761 -0.416196E-08  0.430E-04    0.58      26.5  T
     SCC iter.                  ...        0 min,  0.092 sec
     gradient                   ...        0 min,  0.086 sec
 * total energy  :  -121.7818958 Eh     change       -0.1661895E-03 Eh
   gradient norm :     0.0033926 Eh/α   predicted    -0.1308378E-03 ( -21.27%)
   displ. norm   :     0.6648495 α      lambda       -0.2069742E-03
   maximum displ.:     0.4362572 α      in ANC's #5, #4, #9, ...

........................................................................
.............................. CYCLE   37 ..............................
........................................................................
   1   -123.8548407 -0.123855E+03  0.964E-02    0.59       0.0  T
   2   -123.8546634  0.177308E-03  0.687E-02    0.57       1.0  T
   3   -123.8535791  0.108428E-02  0.101E-01    0.61       1.0  T
   4   -123.8548729 -0.129382E-02  0.910E-03    0.58       1.3  T
   5   -123.8548782 -0.531071E-05  0.569E-03    0.58       2.0  T
   6   -123.8548780  0.216572E-06  0.404E-03    0.58       2.8  T
   7   -123.8548784 -0.389720E-06  0.225E-03    0.58       5.1  T
   8   -123.8548787 -0.248860E-06  0.103E-03    0.58      11.0  T
   9   -123.8548787  0.748859E-08  0.807E-04    0.58      14.1  T
  10   -123.8548787 -0.511060E-07  0.373E-04    0.58      30.5  T
     SCC iter.                  ...        0 min,  0.083 sec
     gradient                   ...        0 min,  0.086 sec
 * total energy  :  -121.7820790 Eh     change       -0.1831735E-03 Eh
   gradient norm :     0.0037206 Eh/α   predicted    -0.1492324E-03 ( -18.53%)
   displ. norm   :     0.6954768 α      lambda       -0.2268307E-03
   maximum displ.:     0.4638915 α      in ANC's #5, #4, #9, ...

........................................................................
.............................. CYCLE   38 ..............................
........................................................................
   1   -123.8557574 -0.123856E+03  0.101E-01    0.59       0.0  T
   2   -123.8556055  0.151919E-03  0.696E-02    0.57       1.0  T
   3   -123.8542976  0.130795E-02  0.108E-01    0.62       1.0  T
   4   -123.8557860 -0.148838E-02  0.875E-03    0.59       1.3  T
   5   -123.8557905 -0.452166E-05  0.528E-03    0.58       2.2  T
   6   -123.8557903  0.184899E-06  0.391E-03    0.58       2.9  T
   7   -123.8557907 -0.387178E-06  0.235E-03    0.58       4.9  T
   8   -123.8557910 -0.287873E-06  0.990E-04    0.58      11.5  T
   9   -123.8557910 -0.105670E-07  0.640E-04    0.58      17.8  T
     SCC iter.                  ...        0 min,  0.076 sec
     gradient                   ...        0 min,  0.086 sec
 * total energy  :  -121.7822801 Eh     change       -0.2011275E-03 Eh
   gradient norm :     0.0045763 Eh/α   predicted    -0.1682770E-03 ( -16.33%)
   displ. norm   :     0.7405223 α      lambda       -0.2448068E-03
   maximum displ.:     0.5014911 α      in ANC's #5, #4, #9, ...

........................................................................
.............................. CYCLE   39 ..............................
........................................................................
   1   -123.8550082 -0.123855E+03  0.109E-01    0.59       0.0  T
   2   -123.8548761  0.132156E-03  0.726E-02    0.58       1.0  T
   3   -123.8532869  0.158921E-02  0.116E-01    0.62       1.0  T
   4   -123.8550335 -0.174669E-02  0.898E-03    0.59       1.3  T
   5   -123.8550381 -0.458191E-05  0.536E-03    0.59       2.1  T
   6   -123.8550380  0.793864E-07  0.397E-03    0.58       2.9  T
   7   -123.8550384 -0.371441E-06  0.242E-03    0.58       4.7  T
   8   -123.8550388 -0.349494E-06  0.907E-04    0.59      12.6  T
   9   -123.8550388 -0.868000E-08  0.560E-04    0.59      20.3  T
     SCC iter.                  ...        0 min,  0.076 sec
     gradient                   ...        0 min,  0.087 sec
 * total energy  :  -121.7824966 Eh     change       -0.2164890E-03 Eh
   gradient norm :     0.0051355 Eh/α   predicted    -0.1895310E-03 ( -12.45%)
   displ. norm   :     0.6567141 α      lambda       -0.2950284E-03
   maximum displ.:     0.4485188 α      in ANC's #5, #4, #9, ...

........................................................................
.............................. CYCLE   40 ..............................
........................................................................
   1   -123.8630751 -0.123863E+03  0.103E-01    0.59       0.0  T
   2   -123.8629744  0.100660E-03  0.682E-02    0.58       1.0  T
   3   -123.8616003  0.137411E-02  0.108E-01    0.62       1.0  T
   4   -123.8630962 -0.149587E-02  0.935E-03    0.59       1.2  T
   5   -123.8631009 -0.474594E-05  0.536E-03    0.59       2.1  T
   6   -123.8631016 -0.676124E-06  0.383E-03    0.59       3.0  T
   7   -123.8631018 -0.234582E-06  0.265E-03    0.59       4.3  T
   8   -123.8631021 -0.298716E-06  0.135E-03    0.59       8.4  T
   9   -123.8631021 -0.204304E-07  0.103E-03    0.59      11.1  T
  10   -123.8631021  0.294412E-07  0.941E-04    0.59      12.1  T
  11   -123.8631021 -0.311344E-07  0.603E-04    0.59      18.9  T
     SCC iter.                  ...        0 min,  0.093 sec
     gradient                   ...        0 min,  0.087 sec
 * total energy  :  -121.7826438 Eh     change       -0.1472214E-03 Eh
   gradient norm :     0.0086732 Eh/α   predicted    -0.2111373E-03 (  43.41%)
   displ. norm   :     0.7071060 α      lambda       -0.3400400E-03
   maximum displ.:     0.4846584 α      in ANC's #5, #4, #9, ...

........................................................................
.............................. CYCLE   41 ..............................
........................................................................
   1   -123.8528989 -0.123853E+03  0.108E-01    0.59       0.0  T
   2   -123.8528276  0.712880E-04  0.680E-02    0.58       1.0  T
   3   -123.8513174  0.151026E-02  0.109E-01    0.62       1.0  T
   4   -123.8529148 -0.159741E-02  0.815E-03    0.59       1.4  T
   5   -123.8529187 -0.387667E-05  0.532E-03    0.59       2.1  T
   6   -123.8529186  0.465195E-07  0.356E-03    0.59       3.2  T
   7   -123.8529189 -0.244162E-06  0.198E-03    0.59       5.7  T
   8   -123.8529190 -0.168475E-06  0.927E-04    0.59      12.3  T
   9   -123.8529190  0.328612E-09  0.759E-04    0.59      15.0  T
     SCC iter.                  ...        0 min,  0.076 sec
     gradient                   ...        0 min,  0.087 sec
 * total energy  :  -121.7828573 Eh     change       -0.2134993E-03 Eh
   gradient norm :     0.0046365 Eh/α   predicted    -0.2550333E-03 (  19.45%)
   displ. norm   :     0.5770485 α      lambda       -0.1476879E-03
   maximum displ.:     0.4022748 α      in ANC's #5, #4, #9, ...

........................................................................
.............................. CYCLE   42 ..............................
........................................................................
   1   -123.8514655 -0.123851E+03  0.833E-02    0.59       0.0  T
   2   -123.8514304  0.351406E-04  0.520E-02    0.58       1.0  T
   3   -123.8505294  0.900973E-03  0.831E-02    0.61       1.0  T
   4   -123.8514732 -0.943766E-03  0.525E-03    0.59       2.2  T
   5   -123.8514749 -0.176610E-05  0.355E-03    0.59       3.2  T
   6   -123.8514750 -0.351473E-07  0.239E-03    0.59       4.8  T
   7   -123.8514750 -0.303577E-07  0.147E-03    0.59       7.7  T
   8   -123.8514751 -0.106923E-06  0.775E-04    0.59      14.7  T
   9   -123.8514751 -0.633237E-08  0.599E-04    0.59      19.0  T
     SCC iter.                  ...        0 min,  0.076 sec
     gradient                   ...        0 min,  0.087 sec
 * total energy  :  -121.7829761 Eh     change       -0.1187893E-03 Eh
   gradient norm :     0.0052815 Eh/α   predicted    -0.9843553E-04 ( -17.13%)
   displ. norm   :     0.4313187 α      lambda       -0.2720743E-03
   maximum displ.:     0.2981824 α      in ANC's #5, #4, #9, ...
 * RMSD in coord.:     1.0669023 α      energy gain  -0.3145072E-02 Eh

generating ANC from model Hessian ...
Using Lindh-Hessian (1995)
 Shifting diagonal of input Hessian by    1.4168889511385240E-002
 Lowest  eigenvalues of input Hessian
    0.010000    0.012459    0.000000    0.000000    0.000000    0.000000
    0.000000    0.000000    0.014186    0.014230    0.014440    0.014589
    0.014734    0.014795    0.015067    0.015093    0.015255    0.015431
 Highest eigenvalues
    2.113233    2.127967    2.153491    2.240018    3.280034    3.742770


........................................................................
.............................. CYCLE   43 ..............................
........................................................................
   1   -123.8558396 -0.123856E+03  0.623E-02    0.58       0.0  T
   2   -123.8558352  0.438528E-05  0.382E-02    0.58       1.0  T
   3   -123.8555924  0.242819E-03  0.415E-02    0.59       1.0  T
   4   -123.8558316 -0.239193E-03  0.111E-02    0.58       1.0  T
   5   -123.8558448 -0.132337E-04  0.414E-03    0.58       2.8  T
   6   -123.8558453 -0.430139E-06  0.300E-03    0.58       3.8  T
   7   -123.8558453 -0.491786E-07  0.154E-03    0.58       7.4  T
   8   -123.8558454 -0.386827E-07  0.109E-03    0.58      10.5  T
   9   -123.8558454 -0.100436E-07  0.756E-04    0.58      15.1  T
  10   -123.8558454 -0.118252E-07  0.563E-04    0.58      20.2  T
     SCC iter.                  ...        0 min,  0.085 sec
     gradient                   ...        0 min,  0.086 sec
 * total energy  :  -121.7831432 Eh     change       -0.1671478E-03 Eh
   gradient norm :     0.0060124 Eh/α   predicted     0.0000000E+00 (-100.00%)
   displ. norm   :     0.0475629 α      lambda       -0.6097955E-04
   maximum displ.:     0.0213667 α      in ANC's #5, #16, #1, ...

........................................................................
.............................. CYCLE   44 ..............................
........................................................................
   1   -123.8561701 -0.123856E+03  0.134E-02    0.58       0.0  T
   2   -123.8561682  0.196595E-05  0.921E-03    0.58       1.2  T
   3   -123.8561464  0.217552E-04  0.137E-02    0.58       1.0  T
   4   -123.8561706 -0.241394E-04  0.286E-03    0.58       4.0  T
   5   -123.8561710 -0.447234E-06  0.152E-03    0.58       7.5  T
   6   -123.8561710  0.600093E-08  0.121E-03    0.58       9.4  T
   7   -123.8561710 -0.299167E-07  0.735E-04    0.58      15.5  T
   8   -123.8561710 -0.844496E-08  0.495E-04    0.58      23.0  T
     SCC iter.                  ...        0 min,  0.067 sec
     gradient                   ...        0 min,  0.087 sec
 * total energy  :  -121.7832043 Eh     change       -0.6100973E-04 Eh
   gradient norm :     0.0021785 Eh/α   predicted    -0.4078577E-04 ( -33.15%)
   displ. norm   :     0.1089639 α      lambda       -0.8756013E-04
   maximum displ.:     0.0548210 α      in ANC's #5, #16, #1, ...

........................................................................
.............................. CYCLE   45 ..............................
........................................................................
   1   -123.8563778 -0.123856E+03  0.240E-02    0.58       0.0  T
   2   -123.8563564  0.213946E-04  0.201E-02    0.59       1.0  T
   3   -123.8563337  0.226579E-04  0.211E-02    0.58       1.0  T
   4   -123.8563826 -0.488810E-04  0.360E-03    0.59       3.2  T
   5   -123.8563831 -0.511615E-06  0.229E-03    0.58       5.0  T
   6   -123.8563832 -0.412150E-07  0.148E-03    0.58       7.7  T
   7   -123.8563832 -0.328964E-07  0.791E-04    0.58      14.4  T
   8   -123.8563832 -0.650287E-08  0.494E-04    0.58      23.1  T
     SCC iter.                  ...        0 min,  0.068 sec
     gradient                   ...        0 min,  0.087 sec
 * total energy  :  -121.7832673 Eh     change       -0.6300327E-04 Eh
   gradient norm :     0.0029103 Eh/α   predicted    -0.4430147E-04 ( -29.68%)
   displ. norm   :     0.1699189 α      lambda       -0.8588946E-04
   maximum displ.:     0.0892809 α      in ANC's #5, #16, #1, ...

........................................................................
.............................. CYCLE   46 ..............................
........................................................................
   1   -123.8563773 -0.123856E+03  0.353E-02    0.58       0.0  T
   2   -123.8563438  0.335156E-04  0.276E-02    0.59       1.0  T
   3   -123.8562523  0.914968E-04  0.336E-02    0.58       1.0  T
   4   -123.8563846 -0.132259E-03  0.530E-03    0.59       2.2  T
   5   -123.8563858 -0.123362E-05  0.351E-03    0.59       3.2  T
   6   -123.8563860 -0.160008E-06  0.193E-03    0.59       5.9  T
   7   -123.8563860 -0.550977E-07  0.110E-03    0.59      10.3  T
   8   -123.8563860 -0.760336E-08  0.562E-04    0.59      20.3  T
   9   -123.8563860 -0.104380E-07  0.298E-04    0.59      38.3  T
     SCC iter.                  ...        0 min,  0.076 sec
     gradient                   ...        0 min,  0.087 sec
 * total energy  :  -121.7833361 Eh     change       -0.6880076E-04 Eh
   gradient norm :     0.0053448 Eh/α   predicted    -0.4419345E-04 ( -35.77%)
   displ. norm   :     0.3334873 α      lambda       -0.1462141E-03
   maximum displ.:     0.1840399 α      in ANC's #5, #16, #11, ...

........................................................................
.............................. CYCLE   47 ..............................
........................................................................
   1   -123.8557633 -0.123856E+03  0.674E-02    0.58       0.0  T
   2   -123.8556568  0.106490E-03  0.515E-02    0.60       1.0  T
   3   -123.8552587  0.398102E-03  0.663E-02    0.57       1.0  T
   4   -123.8557833 -0.524573E-03  0.102E-02    0.59       1.1  T
   5   -123.8557899 -0.662559E-05  0.633E-03    0.59       1.8  T
   6   -123.8557903 -0.419288E-06  0.363E-03    0.59       3.1  T
   7   -123.8557906 -0.296166E-06  0.224E-03    0.59       5.1  T
   8   -123.8557907 -0.119173E-06  0.125E-03    0.59       9.1  T
   9   -123.8557908 -0.510724E-07  0.560E-04    0.59      20.4  T
  10   -123.8557908 -0.123530E-07  0.283E-04    0.59      40.2  T
     SCC iter.                  ...        0 min,  0.084 sec
     gradient                   ...        0 min,  0.087 sec
 * total energy  :  -121.7834442 Eh     change       -0.1081670E-03 Eh
   gradient norm :     0.0065184 Eh/α   predicted    -0.8176180E-04 ( -24.41%)
   displ. norm   :     0.3042377 α      lambda       -0.1115504E-03
   maximum displ.:     0.1802950 α      in ANC's #5, #16, #11, ...

........................................................................
.............................. CYCLE   48 ..............................
........................................................................
   1   -123.8554569 -0.123855E+03  0.590E-02    0.58       0.0  T
   2   -123.8554235  0.334242E-04  0.401E-02    0.59       1.0  T
   3   -123.8549480  0.475533E-03  0.630E-02    0.57       1.0  T
   4   -123.8554602 -0.512221E-03  0.881E-03    0.59       1.3  T
   5   -123.8554668 -0.665326E-05  0.494E-03    0.59       2.3  T
   6   -123.8554670 -0.204734E-06  0.298E-03    0.59       3.8  T
   7   -123.8554673 -0.271779E-06  0.179E-03    0.59       6.4  T
   8   -123.8554674 -0.587058E-07  0.985E-04    0.59      11.6  T
   9   -123.8554674 -0.363557E-07  0.446E-04    0.59      25.5  T
     SCC iter.                  ...        0 min,  0.076 sec
     gradient                   ...        0 min,  0.086 sec
 * total energy  :  -121.7835200 Eh     change       -0.7576867E-04 Eh
   gradient norm :     0.0047304 Eh/α   predicted    -0.6093890E-04 ( -19.57%)
   displ. norm   :     0.1568891 α      lambda       -0.6543316E-04
   maximum displ.:     0.1054998 α      in ANC's #5, #16, #9, ...

........................................................................
.............................. CYCLE   49 ..............................
........................................................................
   1   -123.8563719 -0.123856E+03  0.283E-02    0.59       0.0  T
   2   -123.8563720 -0.973707E-07  0.171E-02    0.59       1.0  T
   3   -123.8563597  0.122995E-04  0.964E-03    0.59       1.2  T
   4   -123.8563702 -0.104829E-04  0.466E-03    0.58       2.4  T
   5   -123.8563725 -0.231796E-05  0.214E-03    0.59       5.3  T
   6   -123.8563726 -0.120620E-06  0.130E-03    0.59       8.8  T
   7   -123.8563727 -0.475333E-07  0.714E-04    0.59      16.0  T
   8   -123.8563727 -0.473517E-08  0.430E-04    0.59      26.5  T
     SCC iter.                  ...        0 min,  0.068 sec
     gradient                   ...        0 min,  0.087 sec
 * total energy  :  -121.7835665 Eh     change       -0.4653367E-04 Eh
   gradient norm :     0.0025016 Eh/α   predicted    -0.3354976E-04 ( -27.90%)
   displ. norm   :     0.0971268 α      lambda       -0.4211845E-04
   maximum displ.:     0.0714393 α      in ANC's #5, #4, #9, ...

........................................................................
.............................. CYCLE   50 ..............................
........................................................................
   1   -123.8573110 -0.123857E+03  0.177E-02    0.59       0.0  T
   2   -123.8573103  0.650632E-06  0.109E-02    0.58       1.0  T
   3   -123.8572802  0.301156E-04  0.148E-02    0.59       1.0  T
   4   -123.8573110 -0.307967E-04  0.247E-03    0.58       4.6  T
   5   -123.8573114 -0.396020E-06  0.141E-03    0.59       8.1  T
   6   -123.8573114 -0.298645E-07  0.915E-04    0.58      12.5  T
   7   -123.8573115 -0.227802E-07  0.484E-04    0.58      23.5  T
     SCC iter.                  ...        0 min,  0.060 sec
     gradient                   ...        0 min,  0.087 sec
 * total energy  :  -121.7835976 Eh     change       -0.3109357E-04 Eh
   gradient norm :     0.0021367 Eh/α   predicted    -0.2126105E-04 ( -31.62%)
   displ. norm   :     0.1113907 α      lambda       -0.3651649E-04
   maximum displ.:     0.0842019 α      in ANC's #5, #4, #9, ...

........................................................................
.............................. CYCLE   51 ..............................
........................................................................
   1   -123.8576157 -0.123858E+03  0.198E-02    0.59       0.0  T
   2   -123.8576154  0.355919E-06  0.120E-02    0.58       1.0  T
   3   -123.8575928  0.226103E-04  0.127E-02    0.59       1.0  T
   4   -123.8576155 -0.227692E-04  0.257E-03    0.58       4.4  T
   5   -123.8576161 -0.540306E-06  0.117E-03    0.59       9.7  T
   6   -123.8576161 -0.136466E-07  0.901E-04    0.59      12.6  T
   7   -123.8576161 -0.144289E-07  0.585E-04    0.59      19.5  T
     SCC iter.                  ...        0 min,  0.060 sec
     gradient                   ...        0 min,  0.087 sec
 * total energy  :  -121.7836272 Eh     change       -0.2955158E-04 Eh
   gradient norm :     0.0030128 Eh/α   predicted    -0.1848705E-04 ( -37.44%)
   displ. norm   :     0.1295578 α      lambda       -0.4248062E-04
   maximum displ.:     0.0947892 α      in ANC's #5, #4, #9, ...

........................................................................
.............................. CYCLE   52 ..............................
........................................................................
   1   -123.8575966 -0.123858E+03  0.237E-02    0.59       0.0  T
[...]
       117                         -0.1663538              -4.5267
       118                         -0.1487912              -4.0488
       119                         -0.1445268              -3.9328
       120                         -0.1338639              -3.6426
       121                         -0.1301630              -3.5419
       122                         -0.1259062              -3.4261
       123                         -0.1239788              -3.3736
       124                         -0.1179484              -3.2095
       125                         -0.1117212              -3.0401
       126                         -0.1055945              -2.8734
       ...                                ...                  ...
       225                          0.8825008              24.0141
      -------------------------------------------------------------
                  HL-Gap            0.0211306 Eh            0.5750 eV
             Fermi-level           -0.2113821 Eh           -5.7520 eV

     #   Z          covCN         q      C6AA      α(0)
     1  35 Br       0.768    -0.495   198.698    22.726
     2   6 C        2.985    -0.003    28.092     8.694
     3   6 C        2.916    -0.048    29.192     8.860
     4   6 C        2.916    -0.062    29.534     8.912
     5   6 C        2.949     0.070    26.427     8.431
     6   6 C        2.921    -0.036    28.889     8.814
     7   6 C        2.916    -0.064    29.598     8.921
     8   6 C        2.918     0.088    26.032     8.367
     9   6 C        2.917    -0.051    29.256     8.870
    10   6 C        2.919    -0.021    28.539     8.760
    11   6 C        2.987     0.008    27.832     8.654
    12   6 C        2.944     0.066    26.528     8.447
    13   6 C        2.977    -0.011    28.288     8.724
    14   6 C        2.916    -0.050    29.239     8.867
    15   6 C        3.645     0.050    20.071     6.439
    16   6 C        2.917    -0.065    29.613     8.924
    17   6 C        2.867     0.133    25.080     8.209
    18   6 C        2.917    -0.036    28.900     8.815
    19   6 C        2.921    -0.037    28.929     8.820
    20   6 C        2.928    -0.024    28.597     8.770
    21   6 C        2.921    -0.054    29.329     8.881
    22   6 C        2.799    -0.062    29.517     8.900
    23   6 C        2.923    -0.017    28.440     8.745
    24   6 C        2.927    -0.036    28.893     8.815
    25   6 C        2.977     0.020    27.561     8.612
    26   6 C        2.916    -0.035    28.877     8.812
    27   6 C        2.918     0.096    25.861     8.339
    28   6 C        2.926    -0.033    28.826     8.805
    29   6 C        2.918    -0.034    28.837     8.806
    30   6 C        2.926    -0.035    28.881     8.813
    31   6 C        2.921    -0.035    28.866     8.811
    32   6 C        2.977     0.021    27.522     8.605
    33   6 C        2.976    -0.006    28.175     8.707
    34   6 C        2.918    -0.034    28.854     8.809
    35   6 C        2.917    -0.030    28.756     8.794
    36   6 C        2.925    -0.022    28.562     8.764
    37   6 C        2.919    -0.029    28.733     8.790
    38   6 C        2.925    -0.022    28.552     8.763
    39   6 C        2.925    -0.037    28.921     8.819
    40   6 C        2.917    -0.041    29.008     8.832
    41   6 C        2.920    -0.035    28.862     8.810
    42   6 C        2.919    -0.026    28.644     8.776
    43  29 Cu       3.142     0.226   145.728    27.488
    44   1 H        0.926     0.030     2.582     2.513
    45   1 H        0.924     0.034     2.537     2.491
    46   1 H        0.925     0.017     2.782     2.608
    47   1 H        0.925     0.004     2.985     2.702
    48   1 H        0.925    -0.001     3.074     2.742
    49   1 H        0.925     0.020     2.730     2.584
    50   1 H        0.925    -0.001     3.073     2.741
    51   1 H        0.925     0.045     2.381     2.413
    52   1 H        0.925     0.018     2.770     2.603
    53   1 H        0.926     0.017     2.784     2.609
    54   1 H        0.925     0.018     2.757     2.597
    55   1 H        0.926     0.032     2.557     2.501
    56   1 H        0.925    -0.001     3.079     2.744
    57   1 H        0.925     0.015     2.813     2.623
    58   1 H        0.926     0.034     2.536     2.490
    59   1 H        0.924     0.028     2.614     2.528
    60   1 H        0.925     0.017     2.782     2.608
    61   1 H        0.926     0.038     2.470     2.458
    62   1 H        0.925     0.012     2.860     2.644
    63   1 H        0.925     0.018     2.765     2.600
    64   1 H        0.925     0.009     2.909     2.667
    65   1 H        0.925     0.013     2.847     2.639
    66   1 H        0.925     0.012     2.858     2.644
    67   1 H        0.926     0.051     2.313     2.378
    68   1 H        0.926     0.018     2.757     2.596
    69   1 H        0.926     0.024     2.676     2.558
    70   1 H        0.926     0.042     2.426     2.436
    71   1 H        0.925     0.014     2.823     2.628
    72   1 H        0.925     0.011     2.873     2.651
    73   1 H        0.925     0.015     2.804     2.618
    74   1 H        0.926     0.035     2.517     2.481
    75   7 N        2.596    -0.265    26.872     7.699
    76   7 N        2.597    -0.236    26.187     7.600
    77   8 O        1.705    -0.291    18.829     5.859

 Mol. C6AA /au·bohr⁶  :      95514.980032
 Mol. C8AA /au·bohr⁸  :    2666665.091479
 Mol. α(0) /au        :        507.573995


Wiberg/Mayer (AO) data.
largest (>0.10) Wiberg bond orders for each atom

 ---------------------------------------------------------------------------
     #   Z sym  total        # sym  WBO       # sym  WBO       # sym  WBO
 ---------------------------------------------------------------------------
     1  35 Br   0.707 --    43 Cu   0.533
     2   6 C    3.984 --    10 C    1.299    11 C    1.257     8 C    1.199
     3   6 C    3.969 --     6 C    1.545    11 C    1.268    46 H    0.968
     4   6 C    3.969 --     9 C    1.458    12 C    1.326    47 H    0.968
     5   6 C    3.972 --     7 C    1.307    75 N    1.249    12 C    1.189
     6   6 C    3.990 --     3 C    1.545    13 C    1.304    49 H    0.969
     7   6 C    3.973 --    14 C    1.465     5 C    1.307    48 H    0.968
     8   6 C    3.978 --    13 C    1.396     2 C    1.199    75 N    1.128
     9   6 C    3.966 --     4 C    1.458    14 C    1.384    50 H    0.972
    10   6 C    3.988 --    18 C    1.540     2 C    1.299    44 H    0.963
                            19 C    0.116
    11   6 C    3.988 --    19 C    1.283     3 C    1.268     2 C    1.257
    12   6 C    3.974 --     4 C    1.326    76 N    1.229     5 C    1.189
    13   6 C    3.977 --     8 C    1.396     6 C    1.304    25 C    1.037
    14   6 C    3.970 --     7 C    1.465     9 C    1.384    56 H    0.971
    15   6 C    3.957 --    77 O    0.996    51 H    0.981    59 H    0.976
                            45 H    0.976
    16   6 C    3.974 --    20 C    1.409    17 C    1.393    53 H    0.965
                            23 C    0.105
    17   6 C    3.927 --    16 C    1.393    21 C    1.359    77 O    1.023
    18   6 C    3.989 --    10 C    1.540    26 C    1.329    57 H    0.972
    19   6 C    3.988 --    26 C    1.548    11 C    1.283    60 H    0.969
                            10 C    0.116
    20   6 C    3.987 --    22 C    1.429    16 C    1.409    54 H    0.964
                            21 C    0.110
    21   6 C    3.978 --    23 C    1.448    17 C    1.359    55 H    0.967
                            20 C    0.110
    22   6 C    3.888 --    20 C    1.429    23 C    1.404    43 Cu   0.678
    23   6 C    3.987 --    21 C    1.448    22 C    1.404    61 H    0.960
                            16 C    0.105
    24   6 C    3.986 --    34 C    1.448    25 C    1.392    52 H    0.970
                            42 C    0.108
    25   6 C    3.988 --    24 C    1.392    36 C    1.391    13 C    1.037
                            41 C    0.107
    26   6 C    3.988 --    19 C    1.548    18 C    1.329    64 H    0.971
    27   6 C    3.978 --    28 C    1.346    33 C    1.294    76 N    1.133
    28   6 C    3.984 --    35 C    1.467    27 C    1.346    58 H    0.967
    29   6 C    3.992 --    30 C    1.449    31 C    1.435    62 H    0.971
                            38 C    0.109
    30   6 C    3.989 --    29 C    1.449    32 C    1.389    63 H    0.970
                            37 C    0.107
    31   6 C    3.988 --    29 C    1.435    37 C    1.433    65 H    0.972
                            32 C    0.106
    32   6 C    3.988 --    30 C    1.389    38 C    1.388    33 C    1.041
                            31 C    0.106
    33   6 C    3.973 --    39 C    1.410    27 C    1.294    32 C    1.041
    34   6 C    3.991 --    24 C    1.448    41 C    1.434    66 H    0.972
                            36 C    0.109
    35   6 C    3.988 --    28 C    1.467    40 C    1.413    68 H    0.971
    36   6 C    3.987 --    42 C    1.450    25 C    1.391    67 H    0.951
                            34 C    0.109
    37   6 C    3.992 --    38 C    1.451    31 C    1.433    69 H    0.968
                            30 C    0.107
    38   6 C    3.990 --    37 C    1.451    32 C    1.388    70 H    0.962
                            29 C    0.109
    39   6 C    3.990 --    40 C    1.437    33 C    1.410    71 H    0.969
    40   6 C    3.959 --    39 C    1.437    35 C    1.413    72 H    0.972
    41   6 C    3.986 --    34 C    1.434    42 C    1.431    73 H    0.972
                            25 C    0.107
    42   6 C    3.991 --    36 C    1.450    41 C    1.431    74 H    0.970
                            24 C    0.108
    43  29 Cu   2.701 --    22 C    0.678    76 N    0.631     1 Br   0.533
                            75 N    0.496
    44   1 H    0.999 --    10 C    0.963
    45   1 H    0.999 --    15 C    0.976
    46   1 H    0.999 --     3 C    0.968
    47   1 H    0.999 --     4 C    0.968
    48   1 H    0.999 --     7 C    0.968
    49   1 H    0.998 --     6 C    0.969
    50   1 H    0.999 --     9 C    0.972
    51   1 H    0.997 --    15 C    0.981
    52   1 H    1.000 --    24 C    0.970
    53   1 H    0.997 --    16 C    0.965
    54   1 H    0.999 --    20 C    0.964
    55   1 H    0.997 --    21 C    0.967
    56   1 H    0.999 --    14 C    0.971
    57   1 H    0.999 --    18 C    0.972
    58   1 H    0.998 --    28 C    0.967
    59   1 H    0.999 --    15 C    0.976
    60   1 H    0.999 --    19 C    0.969
    61   1 H    0.997 --    23 C    0.960
    62   1 H    0.999 --    29 C    0.971
    63   1 H    1.000 --    30 C    0.970
    64   1 H    0.999 --    26 C    0.971
    65   1 H    0.999 --    31 C    0.972
    66   1 H    0.999 --    34 C    0.972
    67   1 H    0.997 --    36 C    0.951
    68   1 H    0.999 --    35 C    0.971
    69   1 H    0.999 --    37 C    0.968
    70   1 H    0.998 --    38 C    0.962
    71   1 H    0.999 --    39 C    0.969
    72   1 H    0.999 --    40 C    0.972
    73   1 H    0.999 --    41 C    0.972
    74   1 H    0.998 --    42 C    0.970
    75   7 N    3.292 --     5 C    1.249     8 C    1.128    43 Cu   0.496
    76   7 N    3.358 --    12 C    1.229    27 C    1.133    43 Cu   0.631
    77   8 O    2.188 --    17 C    1.023    15 C    0.996
 ---------------------------------------------------------------------------

Topologies differ in total number of bonds
Writing topology from bond orders to xtbtopo.mol

molecular dipole:
                 x           y           z       tot (Debye)
 q only:       -5.296      -1.314       9.139
   full:       -7.023      -1.316       9.623      30.465
molecular quadrupole (traceless):
                xx          xy          yy          xz          yz          zz
 q only:       10.345      -3.360      55.599      88.451      29.036     -65.944
  q+dip:      -17.429      -8.823      77.657     126.558      29.052     -60.228
   full:      -12.258      -7.010      72.672     123.973      29.350     -60.414

           -------------------------------------------------
          |                Geometry Summary                 |
           -------------------------------------------------

      molecular mass/u    :      711.1487142
   center of mass at/Å    :        2.2354270       1.2313540      -4.7366641
  moments of inertia/u·Å² :        0.5157098E+04   0.8948326E+04   0.9930864E+04
rotational constants/cm⁻¹ :        0.3268821E-02   0.1883887E-02   0.1697499E-02

 * 78 selected distances

     #   Z          #   Z                                           value/Å
     3   6 C        6   6 C                                       1.3645285
     5   6 C        7   6 C                                       1.4003053
     2   6 C        8   6 C                                       1.4328662 (max)
     4   6 C        9   6 C                                       1.3794402
     2   6 C       10   6 C                                       1.4085474
     2   6 C       11   6 C                                       1.4176305
     3   6 C       11   6 C                                       1.4088757
     4   6 C       12   6 C                                       1.3970915
     5   6 C       12   6 C                                       1.4252149
     6   6 C       13   6 C                                       1.4057589
     8   6 C       13   6 C                                       1.3916442
     7   6 C       14   6 C                                       1.3786465
     9   6 C       14   6 C                                       1.3898240
    16   6 C       17   6 C                                       1.3852699
    10   6 C       18   6 C                                       1.3676637
    11   6 C       19   6 C                                       1.4093251
    16   6 C       20   6 C                                       1.3887540
    17   6 C       21   6 C                                       1.3916348
    20   6 C       22   6 C                                       1.3833392
    21   6 C       23   6 C                                       1.3814382
    22   6 C       23   6 C                                       1.3874670
    24   6 C       25   6 C                                       1.3932401
    18   6 C       26   6 C                                       1.4009837
    19   6 C       26   6 C                                       1.3664657
    27   6 C       28   6 C                                       1.3991535
    29   6 C       30   6 C                                       1.3818921
    29   6 C       31   6 C                                       1.3841042
    30   6 C       32   6 C                                       1.3925078
    27   6 C       33   6 C                                       1.4117789
    24   6 C       34   6 C                                       1.3829823
    28   6 C       35   6 C                                       1.3774516
    25   6 C       36   6 C                                       1.3911743
    31   6 C       37   6 C                                       1.3847445
    32   6 C       38   6 C                                       1.3922178
    37   6 C       38   6 C                                       1.3810809
    33   6 C       39   6 C                                       1.3891161
    35   6 C       40   6 C                                       1.3859945
    39   6 C       40   6 C                                       1.3826080
    34   6 C       41   6 C                                       1.3850011
    36   6 C       42   6 C                                       1.3823571
    41   6 C       42   6 C                                       1.3853577
    10   6 C       44   1 H                                       1.0800279
    15   6 C       45   1 H                                       1.0957794
     3   6 C       46   1 H                                       1.0813795
     4   6 C       47   1 H                                       1.0815642
     7   6 C       48   1 H                                       1.0822851
     6   6 C       49   1 H                                       1.0821337
     9   6 C       50   1 H                                       1.0818598
    15   6 C       51   1 H                                       1.0901460
    24   6 C       52   1 H                                       1.0819435
    16   6 C       53   1 H                                       1.0798727
    20   6 C       54   1 H                                       1.0820499
    21   6 C       55   1 H                                       1.0795534
    14   6 C       56   1 H                                       1.0820599
    18   6 C       57   1 H                                       1.0813144
    28   6 C       58   1 H                                       1.0808979
    15   6 C       59   1 H                                       1.0966994
    19   6 C       60   1 H                                       1.0822872
    23   6 C       61   1 H                                       1.0803757
    29   6 C       62   1 H                                       1.0821536
    30   6 C       63   1 H                                       1.0819173
    26   6 C       64   1 H                                       1.0826686
    31   6 C       65   1 H                                       1.0814177
    34   6 C       66   1 H                                       1.0822418
    36   6 C       67   1 H                                       1.0785064 (min)
    35   6 C       68   1 H                                       1.0809110
    37   6 C       69   1 H                                       1.0798278
    38   6 C       70   1 H                                       1.0798557
    39   6 C       71   1 H                                       1.0824608
    40   6 C       72   1 H                                       1.0812405
    41   6 C       73   1 H                                       1.0813027
    42   6 C       74   1 H                                       1.0803672
     5   6 C       75   7 N                                       1.3536012
     8   6 C       75   7 N                                       1.3821786
    12   6 C       76   7 N                                       1.3623855
    27   6 C       76   7 N                                       1.3840517
    15   6 C       77   8 O                                       1.4017477
    17   6 C       77   8 O                                       1.3774842

 * 4 distinct bonds (by element types)

   Z      Z             #   av. dist./Å        max./Å        min./Å
   1 H    6 C          31     1.0824871     1.0966994     1.0785064
   6 C    6 C          41     1.3913531     1.4328662     1.3645285
   6 C    7 N           4     1.3705542     1.3840517     1.3536012
   6 C    8 O           2     1.3896160     1.4017477     1.3774842


optimized geometry written to: xtbopt.xyz


           -------------------------------------------------
          | TOTAL ENERGY             -121.784384582581 Eh   |
          | GRADIENT NORM               0.000247708525 Eh/α |
          | HOMO-LUMO GAP               0.574993612728 eV   |
           -------------------------------------------------

------------------------------------------------------------------------
 * finished run on 2024/03/10 at 13:19:47.609     
------------------------------------------------------------------------
 total:
 * wall-time:     0 d,  0 h,  0 min, 14.361 sec
 *  cpu-time:     0 d,  0 h,  0 min, 14.306 sec
 * ratio c/w:     0.996 speedup
 SCF:
 * wall-time:     0 d,  0 h,  0 min,  0.294 sec
 *  cpu-time:     0 d,  0 h,  0 min,  0.290 sec
 * ratio c/w:     0.989 speedup
 ANC optimizer:
 * wall-time:     0 d,  0 h,  0 min, 14.015 sec
 *  cpu-time:     0 d,  0 h,  0 min, 13.981 sec
 * ratio c/w:     0.998 speedup

