77
 energy: -121.784384582581 gnorm: 0.000247708525 xtb: 6.5.1 (fef0646)
Br           5.12781322360080        0.19851704523082       -6.12723381653454
C           -0.07651344710774        3.02301244593981       -5.58737787639646
C            0.22855490919074        5.43884084484978       -5.45448540394760
C            0.51955803730225       -1.59160811075305       -2.84475702956831
C            0.68541696233112        0.68094804562034       -3.69586285564505
C            1.21895058073223        5.25735699732357       -4.53355240024896
C           -0.49076766520628        1.00049746099251       -3.00641922890719
C            0.99869355411255        2.84914505801238       -4.65635418817175
C           -0.62525162920077       -1.24311496258484       -2.15859495174243
C           -0.76261802550481        1.92632152217415       -6.14463452169777
C           -0.44167291268220        4.32798274962542       -6.00377529040695
C            1.18790443622942       -0.65125255570057       -3.63273464819984
C            1.62937919208365        3.97388802062417       -4.13303590571377
C           -1.12362006887015        0.05224986909058       -2.23118364915382
C            0.09127898265123        4.56608034337166      -10.63257347796907
C            1.13452021528305        2.55650411766009       -8.94785598383762
C            1.56291102889093        3.87294307704385       -8.89843900626982
C           -1.76383397456437        2.10786942289590       -7.05847841074535
C           -1.46588397237964        4.48310028579124       -6.95935219550228
C            1.60005432558722        1.64591274505146       -8.00831428172391
C            2.49966146376455        4.24838338160901       -7.94021654203136
C            2.48253709044364        2.02845963392343       -7.01407633336619
C            2.95419153755533        3.33329431125945       -7.01049313164581
C            2.61555976374235        4.60642293966902       -1.95122616588322
C            2.71097916363425        3.87886916288085       -3.13557330299170
C           -2.11650213730694        3.39799473131249       -7.47555964004845
C            3.05244019565859       -2.02771642030769       -4.23451728332241
C            3.44172051499875       -2.80453630053740       -5.33116761643541
C            2.50240172144474       -1.40980898965768        0.51965966918708
C            2.81565569887802       -2.16229276733610       -0.59625500670974
C            2.62141514873821       -0.03132252898370        0.48285010675386
C            3.25113676079855       -1.54798743548579       -1.76760586576613
C            3.55776459190884       -2.35841120237638       -2.95842652026635
C            3.63447352483999        4.57382244882791       -1.01667187112443
C            4.27533308989029       -3.89080915656933       -5.18125471797585
C            3.85507245738881        3.11931331539554       -3.35803884073772
C            3.07236837754506        0.58839895364745       -0.67045097920936
C            3.39287524756388       -0.16310015921746       -1.78396282513240
C            4.38600061224931       -3.46615875401194       -2.82972643665970
C            4.74442708811502       -4.23318380334959       -3.92279900009305
C            4.77238018789449        3.82091066194867       -1.25441115846980
C            4.87846108126434        3.09420267934285       -2.42908466425339
Cu           2.76486791855153        0.65903740856828       -5.51630544673187
H           -0.48928067736709        0.92694229774686       -5.83969517246846
H           -0.79288845101330        4.19800024198135      -10.10012877915993
H           -0.05362458002628        6.43236292591485       -5.77490706459087
H            0.88024080131137       -2.61092175743511       -2.81851728818928
H           -0.87170457719723        2.01213420938976       -3.05951260487088
H            1.73240524632154        6.11162579743475       -4.11212354011903
H           -1.14351315995397       -1.98883609432532       -1.57061084863111
H           -0.15352953969249        5.50028407106688      -11.13829115779712
H            1.72575545048818        5.19080304871916       -1.75796529638657
H            0.42925533284820        2.22032995793504       -9.69331775049292
H            1.24437424914291        0.62551877206717       -8.06416689437089
H            2.84771957230357        5.27022509894853       -7.92879762135427
H           -2.01533485637591        0.31976554277654       -1.67970065914583
H           -2.28216991677648        1.25381951729242       -7.47220193715119
H            3.07130831880790       -2.52661160819711       -6.30784192320009
H            0.39655071537391        3.82411209861622      -11.38026439921703
H           -1.72405886186139        5.48418422722511       -7.27954281611973
H            3.67371582526713        3.65952356210087       -6.27355985170191
H            2.15505051296504       -1.90035205754444        1.41953232887066
H            2.69890026115220       -3.23761685649684       -0.57194269997301
H           -2.90413326391216        3.52658768632164       -8.20718252590373
H            2.36311042163658        0.55946379370019        1.35101720405212
H            3.53981597621852        5.13776778832124       -0.09783960674859
H            3.94630970896548        2.55317520273138       -4.27146051943620
H            4.56325143597194       -4.47219536640374       -6.04581322127271
H            3.17152801788215        1.66309490481798       -0.70543512020265
H            3.75315744306422        0.32912145997112       -2.67503110369848
H            4.78050061746674       -3.70745897907727       -1.85102063379451
H            5.39938129039382       -5.08410865933753       -3.79613911085934
H            5.57000308497410        3.79621146073806       -0.52475159608254
H            5.76072162739757        2.50202929138555       -2.62437958951158
N            1.46597518162551        1.59178045057829       -4.32303833116312
N            2.21810460771623       -0.94944863802788       -4.47288967818663
O            1.13342898276701        4.87036723607201       -9.74587778591253
