24
	Energy:      32.9101579
C         -0.07894        0.06815        0.01375
C         -0.97465        1.14309        0.01678
C          0.89658        2.70668       -0.00150
C          1.79608        1.62897       -0.00455
C          1.31593        0.30965        0.00302
H          2.86487        1.81610       -0.01278
C         -0.55861       -1.24947        0.02131
C          0.33625       -2.32092        0.01828
C          1.71401       -2.08573        0.00769
C          2.20562       -0.77610        0.00007
H         -1.62451       -1.44553        0.02955
H         -0.04007       -3.33555        0.02415
H          2.40192       -2.92060        0.00539
H          3.27625       -0.61041       -0.00811
C         -0.49797        2.46035        0.00924
C          1.36602        4.03005       -0.00900
C          0.46050        5.09575       -0.00587
C         -0.91550        4.85042        0.00473
C         -1.39547        3.53837        0.01228
H         -1.61202        5.67882        0.00712
H         -2.46489        3.36285        0.02048
H          2.42959        4.23705       -0.01726
H          0.82578        6.11449       -0.01168
H         -2.04171        0.95207        0.02501
