12
	Energy:      10.5958785
C         -2.70795       -1.89689        0.22142
C         -1.53482       -2.65177        0.32599
C         -2.63160       -0.50967        0.04557
C         -1.38480        0.11910       -0.02527
C         -0.21798       -0.63524        0.07919
C         -0.29048       -2.01830        0.25453
H         -3.67159       -2.38685        0.27668
H         -1.58995       -3.72530        0.46210
H         -3.53499        0.07959       -0.03596
H         -1.31722        1.19058       -0.16103
H          0.74395       -0.14512        0.02389
H          0.61965       -2.59489        0.33450
