20
	Energy:     286.1288018
C         -0.37639       -0.34752        0.04144
C         -0.63112        0.99021       -0.13053
C         -1.35519       -1.31350        0.15711
C         -1.94035        1.46345       -0.20027
C         -2.98395        0.50759       -0.08636
C         -2.68965       -0.87286        0.09133
C          1.03934       -0.10331        0.02073
C          0.83056        1.24277       -0.15196
C          2.28298       -0.68963        0.10438
C          3.39382        0.16464        0.00387
C          3.21285        1.56526       -0.17555
C          1.90908        2.12357       -0.25607
H          2.38440       -1.75717        0.24087
H          4.39000       -0.25265        0.06422
H          4.08268        2.20494       -0.25053
H          1.77100        3.18894       -0.39255
H         -1.09316       -2.35466        0.29142
H         -4.01662        0.82540       -0.13432
H         -3.49675       -1.58932        0.17653
H         -2.16340        2.51282       -0.33534
