31
	Energy:      63.0934357
C          2.87354        0.48871        3.80679
C          2.86163       -0.98629        4.16944
C          1.57636       -1.32556        4.96764
H          3.75279       -1.29658        4.75568
H          2.90312       -1.54394        3.21188
C          0.38193       -0.37835        4.66606
H          1.76303       -1.23891        6.06031
H          1.32906       -2.38879        4.75976
C          0.33893        0.05436        3.17589
H         -0.54569       -0.84691        5.04914
H          0.51884        0.55573        5.25621
C          1.68480        0.81823        2.86110
H          1.56160        1.92028        2.95196
H          1.95718        0.63032        1.79981
H          3.82541        0.80081        3.32618
H          2.77925        1.05750        4.75857
C          0.15751       -1.18419        2.23276
C         -0.84761        1.02512        2.89542
C         -2.22215        0.35428        3.06393
H         -0.77443        1.39503        1.84772
H         -0.78924        1.90867        3.56822
C         -2.33932       -0.85588        2.13228
H         -3.02315        1.08488        2.82022
H         -2.37328        0.03524        4.11561
C         -1.21414       -1.85928        2.40815
H         -2.27245       -0.51264        1.07603
H         -3.32606       -1.34659        2.27396
H         -1.30175       -2.70876        1.69701
H         -1.31438       -2.26999        3.43456
H          0.94162       -1.94845        2.37832
H          0.23044       -0.84819        1.17419
