18
	Energy:      21.7425104
C         -2.56491       -1.87058        0.21912
C         -1.38590       -2.61505        0.32241
C         -2.50940       -0.48541        0.04338
C         -1.27381        0.16666       -0.03051
C         -0.08123       -0.56929        0.07180
C         -0.13856       -1.97370        0.24997
H         -3.52484       -2.36832        0.27540
H         -1.44700       -3.68811        0.45842
H         -3.42738        0.08333       -0.03565
H         -1.24921        1.24124       -0.16697
C          1.05252       -2.71054        0.35238
C          2.28847       -2.06073        0.27878
C          2.34602       -0.67562        0.10306
C          1.16749        0.07106       -0.00050
H          3.30742       -0.18047        0.04712
H          1.23061        1.14414       -0.13650
H          1.02566       -3.78491        0.48880
H          3.20486       -2.63195        0.35811
