13
	Energy:      12.4703999
C          0.09274        0.18513       -0.00000
C         -1.30086        0.25686        0.00000
C         -2.04863       -0.92182        0.00000
N         -1.42046       -2.12807       -0.00000
C         -0.06326       -2.22531       -0.00000
C          0.72793       -1.06688       -0.00000
C          2.20157       -1.17873        0.00000
O          2.90553       -0.18079       -0.00000
H          2.67076       -2.15763       -0.00000
H          0.67198        1.10000        0.00000
H         -1.79766        1.21844       -0.00000
H         -3.12951       -0.87757       -0.00000
H          0.39890       -3.20445        0.00000
