8
	Energy:       0.7220655
C         -0.27955        0.19200        0.05806
C          1.04905        0.07460        0.02256
C          1.69348       -1.21636       -0.36781
H          1.39238       -2.01988        0.33715
H          1.39238       -1.49461       -1.39990
H         -0.73504        1.13456        0.34308
H         -0.91638       -0.65029       -0.19664
H          1.67416        0.92405        0.27942
