14
	Energy:      42.7181594
P          0.09257       -0.59533        0.24219
O          0.34644        0.57638        1.22793
C         -1.55943       -0.24847       -0.53406
H         -2.33829       -0.20907        0.25506
H         -1.80449       -1.05572       -1.25435
H         -1.52260        0.72382       -1.06698
C          0.09438       -2.13427        1.28245
H         -0.70945       -2.06768        2.04412
H          1.07646       -2.23891        1.78770
H         -0.08333       -3.01644        0.63382
C          1.49706       -0.54151       -0.97291
H          1.37677       -1.36073       -1.71111
H          2.45822       -0.66894       -0.43362
H          1.49480        0.43453       -1.50022
