
                                 *****************
                                 * O   R   C   A *
                                 *****************

                                            #,                                       
                                            ###                                      
                                            ####                                     
                                            #####                                    
                                            ######                                   
                                           ########,                                 
                                     ,,################,,,,,                         
                               ,,#################################,,                 
                          ,,##########################################,,             
                       ,#########################################, ''#####,          
                    ,#############################################,,   '####,        
                  ,##################################################,,,,####,       
                ,###########''''           ''''###############################       
              ,#####''   ,,,,##########,,,,          '''####'''          '####       
            ,##' ,,,,###########################,,,                        '##       
           ' ,,###''''                  '''############,,,                           
         ,,##''                                '''############,,,,        ,,,,,,###''
      ,#''                                            '''#######################'''  
     '                                                          ''''####''''         
             ,#######,   #######,   ,#######,      ##                                
            ,#'     '#,  ##    ##  ,#'     '#,    #''#        ######   ,####,        
            ##       ##  ##   ,#'  ##            #'  '#       #        #'  '#        
            ##       ##  #######   ##           ,######,      #####,   #    #        
            '#,     ,#'  ##    ##  '#,     ,#' ,#      #,         ##   #,  ,#        
             '#######'   ##     ##  '#######'  #'      '#     #####' # '####'        



                  #######################################################
                  #                        -***-                        #
                  #          Department of theory and spectroscopy      #
                  #    Directorship and core code : Frank Neese         #
                  #        Max Planck Institute fuer Kohlenforschung    #
                  #                Kaiser Wilhelm Platz 1               #
                  #                 D-45470 Muelheim/Ruhr               #
                  #                      Germany                        #
                  #                                                     #
                  #                  All rights reserved                #
                  #                        -***-                        #
                  #######################################################


                         Program Version 5.0.1 -  RELEASE  -


 With contributions from (in alphabetic order):
   Daniel Aravena         : Magnetic Suceptibility
   Michael Atanasov       : Ab Initio Ligand Field Theory (pilot matlab implementation)
   Alexander A. Auer      : GIAO ZORA, VPT2 properties, NMR spectrum
   Ute Becker             : Parallelization
   Giovanni Bistoni       : ED, misc. LED, open-shell LED, HFLD
   Martin Brehm           : Molecular dynamics
   Dmytro Bykov           : SCF Hessian
   Vijay G. Chilkuri      : MRCI spin determinant printing, contributions to CSF-ICE
   Dipayan Datta          : RHF DLPNO-CCSD density
   Achintya Kumar Dutta   : EOM-CC, STEOM-CC
   Dmitry Ganyushin       : Spin-Orbit,Spin-Spin,Magnetic field MRCI
   Miquel Garcia          : C-PCM and meta-GGA Hessian, CC/C-PCM, Gaussian charge scheme
   Yang Guo               : DLPNO-NEVPT2, F12-NEVPT2, CIM, IAO-localization
   Andreas Hansen         : Spin unrestricted coupled pair/coupled cluster methods
   Benjamin Helmich-Paris : MC-RPA, TRAH-SCF, COSX integrals
   Lee Huntington         : MR-EOM, pCC
   Robert Izsak           : Overlap fitted RIJCOSX, COSX-SCS-MP3, EOM
   Marcus Kettner         : VPT2
   Christian Kollmar      : KDIIS, OOCD, Brueckner-CCSD(T), CCSD density, CASPT2, CASPT2-K
   Simone Kossmann        : Meta GGA functionals, TD-DFT gradient, OOMP2, MP2 Hessian
   Martin Krupicka        : Initial AUTO-CI
   Lucas Lang             : DCDCAS
   Marvin Lechner         : AUTO-CI (C++ implementation), FIC-MRCC
   Dagmar Lenk            : GEPOL surface, SMD
   Dimitrios Liakos       : Extrapolation schemes; Compound Job, initial MDCI parallelization
   Dimitrios Manganas     : Further ROCIS development; embedding schemes
   Dimitrios Pantazis     : SARC Basis sets
   Anastasios Papadopoulos: AUTO-CI, single reference methods and gradients
   Taras Petrenko         : DFT Hessian,TD-DFT gradient, ASA, ECA, R-Raman, ABS, FL, XAS/XES, NRVS
   Peter Pinski           : DLPNO-MP2, DLPNO-MP2 Gradient
   Christoph Reimann      : Effective Core Potentials
   Marius Retegan         : Local ZFS, SOC
   Christoph Riplinger    : Optimizer, TS searches, QM/MM, DLPNO-CCSD(T), (RO)-DLPNO pert. Triples
   Tobias Risthaus        : Range-separated hybrids, TD-DFT gradient, RPA, STAB
   Michael Roemelt        : Original ROCIS implementation
   Masaaki Saitow         : Open-shell DLPNO-CCSD energy and density
   Barbara Sandhoefer     : DKH picture change effects
   Avijit Sen             : IP-ROCIS
   Kantharuban Sivalingam : CASSCF convergence, NEVPT2, FIC-MRCI
   Bernardo de Souza      : ESD, SOC TD-DFT
   Georgi Stoychev        : AutoAux, RI-MP2 NMR, DLPNO-MP2 response
   Willem Van den Heuvel  : Paramagnetic NMR
   Boris Wezisla          : Elementary symmetry handling
   Frank Wennmohs         : Technical directorship


 We gratefully acknowledge several colleagues who have allowed us to
 interface, adapt or use parts of their codes:
   Stefan Grimme, W. Hujo, H. Kruse, P. Pracht,  : VdW corrections, initial TS optimization,
                  C. Bannwarth, S. Ehlert          DFT functionals, gCP, sTDA/sTD-DF
   Ed Valeev, F. Pavosevic, A. Kumar             : LibInt (2-el integral package), F12 methods
   Garnet Chan, S. Sharma, J. Yang, R. Olivares  : DMRG
   Ulf Ekstrom                                   : XCFun DFT Library
   Mihaly Kallay                                 : mrcc  (arbitrary order and MRCC methods)
   Jiri Pittner, Ondrej Demel                    : Mk-CCSD
   Frank Weinhold                                : gennbo (NPA and NBO analysis)
   Christopher J. Cramer and Donald G. Truhlar   : smd solvation model
   Lars Goerigk                                  : TD-DFT with DH, B97 family of functionals
   V. Asgeirsson, H. Jonsson                     : NEB implementation
   FAccTs GmbH                                   : IRC, NEB, NEB-TS, DLPNO-Multilevel, CI-OPT
                                                   MM, QMMM, 2- and 3-layer-ONIOM, Crystal-QMMM,
                                                   LR-CPCM, SF, NACMEs, symmetry and pop. for TD-DFT,
                                                   nearIR, NL-DFT gradient (VV10), updates on ESD,
                                                   ML-optimized integration grids
   S Lehtola, MJT Oliveira, MAL Marques          : LibXC Library
   Liviu Ungur et al                             : ANISO software


 Your calculation uses the libint2 library for the computation of 2-el integrals
 For citations please refer to: http://libint.valeyev.net

 Your ORCA version has been built with support for libXC version: 5.1.0
 For citations please refer to: https://tddft.org/programs/libxc/

 This ORCA versions uses:
   CBLAS   interface :  Fast vector & matrix operations
   LAPACKE interface :  Fast linear algebra routines
   SCALAPACK package :  Parallel linear algebra routines
   Shared memory     :  Shared parallel matrices
   BLAS/LAPACK       :  OpenBLAS 0.3.15  USE64BITINT DYNAMIC_ARCH NO_AFFINITY Zen SINGLE_THREADED
        Core in use  :  Zen
   Copyright (c) 2011-2014, The OpenBLAS Project




***************************************
The coordinates will be read from file: /scratch/negishi/li1724/Test-CentralizedCode-4-5/DFT/QJPJQTDYNZXKQF-UHFFFAOYSA-N/QJPJQTDYNZXKQF-UHFFFAOYSA-N-FullTZ.xyz
***************************************


Your calculation utilizes the atom-pairwise dispersion correction
with the Becke-Johnson damping scheme (D3BJ)
Cite in your paper:
S.Grimme, S.Ehrlich, L.Goerigk, J Comput Chem, (2011), 32, 1456–1465 
S.Grimme, J.Antony, S.Ehrlich and H.Krieg, J.Chem.Phys., 132, (2010), 154104 
   

Your calculation employs the composite approach B97-3c by Grimme and coworkers.
For the correct reference, please check the publication list of the Grimme group:
http://www.thch.uni-bonn.de/tc/index.php?section=publikationen&subsection=grimme#2017
   

XCFun DFT library Copyright 2009-2010 Ulf Ekstrom and contributors.
See http://admol.org/xcfun for more information.
This is free software; see the source code for copying conditions.
There is ABSOLUTELY NO WARRANTY; not even for MERCHANTABILITY or FITNESS FOR A PARTICULAR PURPOSE.
For details see the documentation.
Scientific users of this library should cite U. Ekstrom, L. Visscher, R. Bast, A. J. Thorvaldsen and K. Ruud;
J.Chem.Theor.Comp. 2010, DOI: 10.1021/ct100117s
XCFun Version 0.99 

================================================================================

----- Orbital basis set information -----
Your calculation utilizes the basis: def2-mTZVP
----- AuxJ basis set information -----
Your calculation utilizes the basis: def2-mTZVP/J
================================================================================
                                        WARNINGS
                       Please study these warnings very carefully!
================================================================================

WARNING: Gradients needed for Numerical Frequencies
  ===> : Setting RunTyp to EnGrad

WARNING: The environment variable RSH_COMMAND is not set!
  ===> : All Displacements for the Numerical Hessian calculation
         will be started on localhost

INFO   : the flag for use of the SHARK integral package has been found!

================================================================================
                                       INPUT FILE
================================================================================
NAME = /scratch/negishi/li1724/Test-CentralizedCode-4-5/DFT/QJPJQTDYNZXKQF-UHFFFAOYSA-N/QJPJQTDYNZXKQF-UHFFFAOYSA-N-FullTZ.in
|  1> ! B97-3c def2-mTZVP CPCM(DMSO) defgrid2 NumFreq
|  2> 
|  3> %scf
|  4>   MaxIter 500
|  5> end
|  6> 
|  7> %pal
|  8>   nproc 48
|  9> end
| 10> 
| 11> %maxcore 4800
| 12> 
| 13> %base "QJPJQTDYNZXKQF-UHFFFAOYSA-N-FullTZ"
| 14> 
| 15> *xyzfile 0 1 /scratch/negishi/li1724/Test-CentralizedCode-4-5/DFT/QJPJQTDYNZXKQF-UHFFFAOYSA-N/QJPJQTDYNZXKQF-UHFFFAOYSA-N-FullTZ.xyz
| 16> 
| 17>                          ****END OF INPUT****
================================================================================

                     *******************************
                     * Energy+Gradient Calculation *
                     *******************************

---------------------------------
CARTESIAN COORDINATES (ANGSTROEM)
---------------------------------
  Br    -2.414612   -0.086268   -0.000305
  C      4.468430   -0.691337    0.000163
  C      1.652002   -1.017667   -0.000041
  C      2.272598    0.242593    0.000025
  C      0.257167   -1.113130   -0.000138
  C      1.475061    1.402863   -0.000007
  C     -0.514385    0.046178   -0.000170
  C      0.087217    1.308287   -0.000104
  H      4.317664   -1.305610    0.898975
  H      4.317795   -1.305581   -0.898691
  H      2.238436   -1.933410   -0.000018
  H     -0.215983   -2.093690   -0.000185
  H      1.958102    2.378930    0.000045
  H      5.488172   -0.293986    0.000240
  H     -0.520197    2.211885   -0.000128
  O      3.606017    0.437725    0.000116

----------------------------
CARTESIAN COORDINATES (A.U.)
----------------------------
  NO LB      ZA    FRAG     MASS         X           Y           Z
   0 Br   35.0000    0    79.900   -4.562956   -0.163024   -0.000575
   1 C     6.0000    0    12.011    8.444109   -1.306437    0.000308
   2 C     6.0000    0    12.011    3.121832   -1.923113   -0.000077
   3 C     6.0000    0    12.011    4.294588    0.458434    0.000046
   4 C     6.0000    0    12.011    0.485975   -2.103510   -0.000260
   5 C     6.0000    0    12.011    2.787461    2.651027   -0.000014
   6 C     6.0000    0    12.011   -0.972047    0.087264   -0.000321
   7 C     6.0000    0    12.011    0.164817    2.472304   -0.000197
   8 H     1.0000    0     1.008    8.159203   -2.467245    1.698817
   9 H     1.0000    0     1.008    8.159450   -2.467190   -1.698280
  10 H     1.0000    0     1.008    4.230030   -3.653615   -0.000034
  11 H     1.0000    0     1.008   -0.408148   -3.956500   -0.000350
  12 H     1.0000    0     1.008    3.700276    4.495527    0.000086
  13 H     1.0000    0     1.008   10.371142   -0.555554    0.000454
  14 H     1.0000    0     1.008   -0.983031    4.179857   -0.000241
  15 O     8.0000    0    15.999    6.814385    0.827181    0.000220

--------------------------------
INTERNAL COORDINATES (ANGSTROEM)
--------------------------------
 Br     0   0   0     0.000000000000     0.00000000     0.00000000
 C      1   0   0     6.909586059483     0.00000000     0.00000000
 C      2   1   0     2.835270337174    11.63300124     0.00000000
 C      3   2   1     1.404775705431    57.17355357     0.00000000
 C      3   2   4     1.398098116803   177.30600509     0.00000000
 C      4   3   2     1.407938975220   119.27921894   180.00020600
 C      5   3   4     1.392582925268   119.72967379     0.00000000
 C      6   4   3     1.391062606602   120.60509325     0.00000000
 H      2   1   7     1.099056424714    84.97146652   124.81662072
 H      2   1   7     1.099056598732    84.97178553   235.18307361
 H      3   2   9     1.087422975100    63.97407891   303.40687661
 H      5   3  11     1.088746313935   119.67393552     0.00000000
 H      6   4   3     1.089052891796   119.16635593   179.99986560
 H      2   1   7     1.094422516298   153.68744041     0.00000000
 H      8   6   4     1.088780059163   120.01124243   179.99995304
 O      4   3   2     1.347621131454   124.54280810     0.00000000

---------------------------
INTERNAL COORDINATES (A.U.)
---------------------------
 Br     0   0   0     0.000000000000     0.00000000     0.00000000
 C      1   0   0    13.057225351183     0.00000000     0.00000000
 C      2   1   0     5.357884452890    11.63300124     0.00000000
 C      3   2   1     2.654641362851    57.17355357     0.00000000
 C      3   2   4     2.642022549108   177.30600509     0.00000000
 C      4   3   2     2.660619076439   119.27921894   180.00020600
 C      5   3   4     2.631600347532   119.72967379     0.00000000
 C      6   4   3     2.628727361617   120.60509325     0.00000000
 H      2   1   7     2.076915648436    84.97146652   124.81662072
 H      2   1   7     2.076915977282    84.97178553   235.18307361
 H      3   2   9     2.054931614673    63.97407891   303.40687661
 H      5   3  11     2.057432362653   119.67393552     0.00000000
 H      6   4   3     2.058011710849   119.16635593   179.99986560
 H      2   1   7     2.068158830601   153.68744041     0.00000000
 H      8   6   4     2.057496131893   120.01124243   179.99995304
 O      4   3   2     2.546634870733   124.54280810     0.00000000

---------------------
BASIS SET INFORMATION
---------------------
There are 4 groups of distinct atoms

 Group   1 Type Br  : 17s13p7d contracted to 6s5p3d pattern {842111/64111/511}
 Group   2 Type C   : 11s6p1d contracted to 5s3p1d pattern {62111/411/1}
 Group   3 Type H   : 5s contracted to 3s pattern {311}
 Group   4 Type O   : 11s6p2d contracted to 5s3p2d pattern {62111/411/11}

Atom   0Br   basis set group =>   1
Atom   1C    basis set group =>   2
Atom   2C    basis set group =>   2
Atom   3C    basis set group =>   2
Atom   4C    basis set group =>   2
Atom   5C    basis set group =>   2
Atom   6C    basis set group =>   2
Atom   7C    basis set group =>   2
Atom   8H    basis set group =>   3
Atom   9H    basis set group =>   3
Atom  10H    basis set group =>   3
Atom  11H    basis set group =>   3
Atom  12H    basis set group =>   3
Atom  13H    basis set group =>   3
Atom  14H    basis set group =>   3
Atom  15O    basis set group =>   4
---------------------------------
AUXILIARY/J BASIS SET INFORMATION
---------------------------------
There are 4 groups of distinct atoms

 Group   1 Type Br  : 19s5p5d3f1g contracted to 8s4p3d2f1g pattern {121111111/2111/311/21/1}
 Group   2 Type C   : 8s3p3d contracted to 6s3p3d pattern {311111/111/111}
 Group   3 Type H   : 5s2p contracted to 3s1p pattern {311/2}
 Group   4 Type O   : 8s3p3d contracted to 6s3p3d pattern {311111/111/111}

Atom   0Br   basis set group =>   1
Atom   1C    basis set group =>   2
Atom   2C    basis set group =>   2
Atom   3C    basis set group =>   2
Atom   4C    basis set group =>   2
Atom   5C    basis set group =>   2
Atom   6C    basis set group =>   2
Atom   7C    basis set group =>   2
Atom   8H    basis set group =>   3
Atom   9H    basis set group =>   3
Atom  10H    basis set group =>   3
Atom  11H    basis set group =>   3
Atom  12H    basis set group =>   3
Atom  13H    basis set group =>   3
Atom  14H    basis set group =>   3
Atom  15O    basis set group =>   4


           ************************************************************
           *        Program running with 48 parallel MPI-processes    *
           *              working on a common directory               *
           ************************************************************
------------------------------------------------------------------------------
                           ORCA GTO INTEGRAL CALCULATION
                           -- RI-GTO INTEGRALS CHOSEN --
------------------------------------------------------------------------------
------------------------------------------------------------------------------
                   ___                                                        
                  /   \      - P O W E R E D   B Y -                         
                 /     \                                                     
                 |  |  |   _    _      __       _____    __    __             
                 |  |  |  | |  | |    /  \     |  _  \  |  |  /  |          
                  \  \/   | |  | |   /    \    | | | |  |  | /  /          
                 / \  \   | |__| |  /  /\  \   | |_| |  |  |/  /          
                |  |  |   |  __  | /  /__\  \  |    /   |      \           
                |  |  |   | |  | | |   __   |  |    \   |  |\   \          
                \     /   | |  | | |  |  |  |  | |\  \  |  | \   \       
                 \___/    |_|  |_| |__|  |__|  |_| \__\ |__|  \__/        
                                                                              
                      - O R C A' S   B I G   F R I E N D -                    
                                      &                                       
                       - I N T E G R A L  F E E D E R -                       
                                                                              
 v1 FN, 2020, v2 2021                                                         
------------------------------------------------------------------------------


Reading SHARK input file QJPJQTDYNZXKQF-UHFFFAOYSA-N-FullTZ.SHARKINP.tmp ... ok
----------------------
SHARK INTEGRAL PACKAGE
----------------------

Number of atoms                             ...     16
Number of basis functions                   ...    214
Number of shells                            ...    108
Maximum angular momentum                    ...      2
Integral batch strategy                     ... SHARK/LIBINT Hybrid
RI-J (if used) integral strategy            ... SPLIT-RIJ (Revised 2003 algorithm where possible)
Printlevel                                  ...      1
Contraction scheme used                     ... SEGMENTED contraction
Coulomb Range Separation                    ... NOT USED
Exchange Range Separation                   ... NOT USED
Finite Nucleus Model                        ... NOT USED
Auxiliary Coulomb fitting basis             ... AVAILABLE
   # of basis functions in Aux-J            ...    340
   # of shells in Aux-J                     ...    142
   Maximum angular momentum in Aux-J        ...      4
Auxiliary J/K fitting basis                 ... NOT available
Auxiliary Correlation fitting basis         ... NOT available
Auxiliary 'external' fitting basis          ... NOT available
Integral threshold                          ...     2.500000e-11
Primitive cut-off                           ...     2.500000e-12
Primitive pair pre-selection threshold      ...     2.500000e-12

Calculating pre-screening integrals         ... done (  0.1 sec) Dimension = 108
Organizing shell pair data                  ... done (  0.0 sec)
Shell pair information
Total number of shell pairs                 ...      5886
Shell pairs after pre-screening             ...      5128
Total number of primitive shell pairs       ...     23916
Primitive shell pairs kept                  ...     14167
          la=0 lb=0:   1889 shell pairs
          la=1 lb=0:   1765 shell pairs
          la=1 lb=1:    412 shell pairs
          la=2 lb=0:    679 shell pairs
          la=2 lb=1:    316 shell pairs
          la=2 lb=2:     67 shell pairs

Calculating one electron integrals          ... done (  0.0 sec)
Calculating RI/J V-Matrix + Cholesky decomp.... done (  0.1 sec)
Calculating Nuclear repulsion               ... done (  0.0 sec) ENN=    615.579530879522 Eh

SHARK setup successfully completed in   0.3 seconds

Maximum memory used throughout the entire GTOINT-calculation: 13.3 MB


           ************************************************************
           *        Program running with 48 parallel MPI-processes    *
           *              working on a common directory               *
           ************************************************************
-------------------------------------------------------------------------------
                                 ORCA SCF
-------------------------------------------------------------------------------

------------
SCF SETTINGS
------------
Hamiltonian:
 Density Functional     Method          .... DFT(GTOs)
 Exchange Functional    Exchange        .... B973C
 Correlation Functional Correlation     .... B973C
 Gradients option       PostSCFGGA      .... off
   Density functional embedding theory  .... OFF
 RI-approximation to the Coulomb term is turned on
   Number of AuxJ basis functions       .... 340


General Settings:
 Integral files         IntName         .... QJPJQTDYNZXKQF-UHFFFAOYSA-N-FullTZ
 Hartree-Fock type      HFTyp           .... RHF
 Total Charge           Charge          ....    0
 Multiplicity           Mult            ....    1
 Number of Electrons    NEL             ....   92
 Basis Dimension        Dim             ....  214
 Nuclear Repulsion      ENuc            ....    615.5795308795 Eh

Convergence Acceleration:
 DIIS                   CNVDIIS         .... on
   Start iteration      DIISMaxIt       ....    12
   Startup error        DIISStart       ....  0.200000
   # of expansion vecs  DIISMaxEq       ....     5
   Bias factor          DIISBfac        ....   1.050
   Max. coefficient     DIISMaxC        ....  10.000
 Trust-Rad. Augm. Hess. CNVTRAH         .... auto
   Auto Start mean grad. ratio tolernc. ....  1.125000
   Auto Start start iteration           ....    20
   Auto Start num. interpolation iter.  ....    10
   Max. Number of Micro iterations      ....    16
   Max. Number of Macro iterations      .... Maxiter - #DIIS iter
   Number of Davidson start vectors     ....     2
   Converg. threshold I  (grad. norm)   ....   1.000e-05
   Converg. threshold II (energy diff.) ....   1.000e-08
   Grad. Scal. Fac. for Micro threshold ....   0.100
   Minimum threshold for Micro iter.    ....   0.010
   NR start threshold (gradient norm)   ....   0.001
   Initial trust radius                 ....   0.400
   Minimum AH scaling param. (alpha)    ....   1.000
   Maximum AH scaling param. (alpha)    .... 1000.000
   Orbital update algorithm             .... Taylor
   White noise on init. David. guess    .... on
   Maximum white noise                  ....   0.010
   Quad. conv. algorithm                .... NR
   COSX micro iterations for RIJONX calc.... off
 SOSCF                  CNVSOSCF        .... on
   Start iteration      SOSCFMaxIt      ....   150
   Startup grad/error   SOSCFStart      ....  0.003300
 Level Shifting         CNVShift        .... on
   Level shift para.    LevelShift      ....    0.2500
   Turn off err/grad.   ShiftErr        ....    0.0010
 Zerner damping         CNVZerner       .... off
 Static damping         CNVDamp         .... on
   Fraction old density DampFac         ....    0.7000
   Max. Damping (<1)    DampMax         ....    0.9800
   Min. Damping (>=0)   DampMin         ....    0.0000
   Turn off err/grad.   DampErr         ....    0.1000
 Fernandez-Rico         CNVRico         .... off

SCF Procedure:
 Maximum # iterations   MaxIter         ....   500
 SCF integral mode      SCFMode         .... Direct
   Integral package                     .... SHARK and LIBINT hybrid scheme
 Reset frequency        DirectResetFreq ....    20
 Integral Threshold     Thresh          ....  2.500e-11 Eh
 Primitive CutOff       TCut            ....  2.500e-12 Eh

Convergence Tolerance:
 Convergence Check Mode ConvCheckMode   .... Total+1el-Energy
 Convergence forced     ConvForced      .... 0
 Energy Change          TolE            ....  1.000e-08 Eh
 1-El. energy change                    ....  1.000e-05 Eh
 Orbital Gradient       TolG            ....  1.000e-05
 Orbital Rotation angle TolX            ....  1.000e-05
 DIIS Error             TolErr          ....  5.000e-07


Diagonalization of the overlap matrix:
Smallest eigenvalue                        ... 9.943e-06
Time for diagonalization                   ...    0.008 sec
Threshold for overlap eigenvalues          ... 1.000e-08
Number of eigenvalues below threshold      ... 0
Time for construction of square roots      ...    0.023 sec
Total time needed                          ...    0.032 sec

--------------------------------
INITIAL GUESS: MINIMAL BASIS EHT
--------------------------------
The minimal basis has 65 functions
EHT matrix was diagonalized
Basis set overlap was calculated now projecting the orbitals
Using GuessMode=FMatrix for the initial guess
C*T matrix was formed
Effective Fockian was calculated
Effective Fockian was diagonalized
Initial density was built
                      ------------------
                      INITIAL GUESS DONE
                      ------------------
-------------------
DFT GRID GENERATION
-------------------

General Integration Accuracy     IntAcc      ... 4.388
Radial Grid Type                 RadialGrid  ... OptM3 with GC (2021)
Angular Grid (max. ang.)         AngularGrid ... 4 (Lebedev-302)
Angular grid pruning method      GridPruning ... 4 (adaptive)
Weight generation scheme         WeightScheme... Becke
Basis function cutoff            BFCut       ... 1.0000e-11
Integration weight cutoff        WCut        ... 1.0000e-14
Angular grids for H and He will be reduced by one unit
Partially contracted basis set               ... off
Rotationally invariant grid construction     ... off

Total number of grid points                  ...    82239
Total number of batches                      ...     1292
Average number of points per batch           ...       63
Average number of grid points per atom       ...     5140
Time for grid setup =    0.462 sec


--------------------
CPCM SOLVATION MODEL
--------------------
CPCM parameters:
  Epsilon                                         ...      47.2000
  Refrac                                          ...       1.4790
  Rsolv                                           ...       1.3000
  Surface type                                    ... GAUSSIAN VDW
  Epsilon function type                           ...         CPCM
Radii:
 Radius for Br used is    4.1952 Bohr (=   2.2200 Ang.)
 Radius for C  used is    3.8550 Bohr (=   2.0400 Ang.)
 Radius for H  used is    2.4944 Bohr (=   1.3200 Ang.)
 Radius for O  used is    3.4469 Bohr (=   1.8240 Ang.)
Calculating surface                               ...        done! (  0.0s)
GEPOL surface points                              ...          925
GEPOL Volume                                      ...    1186.4856
GEPOL Surface-area                                ...     657.8631
Calculating surface distance matrix               ...        done! (  0.0s)
Performing Cholesky decomposition & store         ...        done! (  0.0s)
Overall time for CPCM initialization              ...                 0.0s
--------------
SCF ITERATIONS
--------------
ITER       Energy         Delta-E        Max-DP      RMS-DP      [F,P]     Damp
               ***  Starting incremental Fock matrix formation  ***
  0  -2918.0754777027   0.000000000000 0.86659025  0.01156950  1.5825269 0.7000
  1  -2919.0713723331  -0.995894630429 0.33884841  0.00607985  0.8322960 0.7000
  2  -2919.6654395055  -0.594067172368 0.26594510  0.00549301  0.4874246 0.7000
  3  -2920.0722841171  -0.406844611623 0.23600636  0.00476075  0.3385999 0.7000
  4  -2920.3549479023  -0.282663785185 0.19339824  0.00367844  0.2356990 0.7000
                               ***Turning on DIIS***
  5  -2920.5518054038  -0.196857501579 0.14127014  0.00267632  0.1675672 0.7000
  6  -2920.6893584199  -0.137553016099 0.10304358  0.00193736  0.1194062 0.7000
  7  -2920.7856036144  -0.096245194459 0.25058693  0.00458068  0.0834930 0.0000
                      *** Initiating the SOSCF procedure ***
                           *** Shutting down DIIS ***
                      *** Re-Reading the Fockian *** 
                      *** Removing any level shift *** 
ITER      Energy       Delta-E        Grad      Rot      Max-DP    RMS-DP
  8  -2921.01019257  -0.2245889519  0.000464  0.000464  0.004083  0.000064
               *** Restarting incremental Fock matrix formation ***
  9  -2921.01019787  -0.0000053077  0.000344  0.001602  0.008106  0.000095
 10  -2921.01018752   0.0000103560  0.000741  0.001437  0.006029  0.000066
 11  -2921.01020131  -0.0000137945  0.000092  0.000308  0.000553  0.000014
 12  -2921.01020094   0.0000003765  0.000171  0.000192  0.000248  0.000008
 13  -2921.01020147  -0.0000005308  0.000026  0.000116  0.000151  0.000004
 14  -2921.01020142   0.0000000423  0.000048  0.000081  0.000090  0.000002
                  ***Gradient check signals convergence***
              ***Rediagonalizing the Fockian in SOSCF/NRSCF***

               *****************************************************
               *                     SUCCESS                       *
               *           SCF CONVERGED AFTER  15 CYCLES          *
               *****************************************************


----------------
TOTAL SCF ENERGY
----------------

Total Energy       :        -2921.01020149 Eh          -79484.72851 eV

Components:
Nuclear Repulsion  :          615.57953088 Eh           16750.77063 eV
Electronic Energy  :        -3536.58973237 Eh          -96235.49914 eV
One Electron Energy:        -5276.30209493 Eh         -143575.47924 eV
Two Electron Energy:         1739.71236256 Eh           47339.98010 eV
CPCM Dielectric    :           -0.00896361 Eh              -0.24391 eV

Virial components:
Potential Energy   :        -5837.13622429 Eh         -158836.55176 eV
Kinetic Energy     :         2916.12602280 Eh           79351.82325 eV
Virial Ratio       :            2.00167489


DFT components:
N(Alpha)           :       46.000055939577 electrons
N(Beta)            :       46.000055939577 electrons
N(Total)           :       92.000111879154 electrons
E(XC)              :     -141.204771918169 Eh       
DFET-embed. en.    :        0.000000000000 Eh       
CPCM Solvation Model Properties:
Surface-charge          :           -0.02620284
Charge-correction       :            0.00010141 Eh               0.00276 eV
Free-energy (cav+disp)  :  This term is not implemented in the current solvation scheme

---------------
SCF CONVERGENCE
---------------

  Last Energy change         ...   -6.3758e-08  Tolerance :   1.0000e-08
  Last MAX-Density change    ...    1.2034e-04  Tolerance :   1.0000e-07
  Last RMS-Density change    ...    2.7240e-06  Tolerance :   5.0000e-09
  Last Orbital Gradient      ...    2.4128e-06  Tolerance :   1.0000e-05
  Last Orbital Rotation      ...    1.0166e-05  Tolerance :   1.0000e-05

             **** THE GBW FILE WAS UPDATED (QJPJQTDYNZXKQF-UHFFFAOYSA-N-FullTZ.gbw) ****
             **** DENSITY QJPJQTDYNZXKQF-UHFFFAOYSA-N-FullTZ.scfp WAS UPDATED ****
             **** ENERGY FILE WAS UPDATED (QJPJQTDYNZXKQF-UHFFFAOYSA-N-FullTZ.en.tmp) ****
             **** THE GBW FILE WAS UPDATED (QJPJQTDYNZXKQF-UHFFFAOYSA-N-FullTZ.gbw) ****
             **** DENSITY QJPJQTDYNZXKQF-UHFFFAOYSA-N-FullTZ.scfp WAS UPDATED ****
----------------
ORBITAL ENERGIES
----------------

  NO   OCC          E(Eh)            E(eV) 
   0   2.0000    -480.863223    -13084.9535 
   1   2.0000     -61.928341     -1685.1558 
   2   2.0000     -55.882899     -1520.6510 
   3   2.0000     -55.878586     -1520.5336 
   4   2.0000     -55.878544     -1520.5325 
   5   2.0000     -18.785458      -511.1783 
   6   2.0000      -9.962967      -271.1061 
   7   2.0000      -9.949744      -270.7463 
   8   2.0000      -9.940702      -270.5003 
   9   2.0000      -9.911106      -269.6949 
  10   2.0000      -9.910895      -269.6892 
  11   2.0000      -9.904355      -269.5112 
  12   2.0000      -9.903425      -269.4859 
  13   2.0000      -8.451925      -229.9886 
  14   2.0000      -6.337272      -172.4459 
  15   2.0000      -6.323412      -172.0688 
  16   2.0000      -6.323120      -172.0608 
  17   2.0000      -2.542276       -69.1789 
  18   2.0000      -2.539186       -69.0948 
  19   2.0000      -2.538956       -69.0885 
  20   2.0000      -2.528422       -68.8019 
  21   2.0000      -2.528416       -68.8017 
  22   2.0000      -0.996438       -27.1144 
  23   2.0000      -0.802074       -21.8255 
  24   2.0000      -0.741130       -20.1672 
  25   2.0000      -0.696304       -18.9474 
  26   2.0000      -0.679663       -18.4946 
  27   2.0000      -0.627702       -17.0806 
  28   2.0000      -0.566729       -15.4215 
  29   2.0000      -0.536224       -14.5914 
  30   2.0000      -0.491424       -13.3723 
  31   2.0000      -0.446313       -12.1448 
  32   2.0000      -0.429578       -11.6894 
  33   2.0000      -0.421001       -11.4560 
  34   2.0000      -0.407805       -11.0969 
  35   2.0000      -0.389762       -10.6060 
  36   2.0000      -0.375374       -10.2144 
  37   2.0000      -0.352569        -9.5939 
  38   2.0000      -0.337473        -9.1831 
  39   2.0000      -0.329077        -8.9546 
  40   2.0000      -0.309544        -8.4231 
  41   2.0000      -0.292862        -7.9692 
  42   2.0000      -0.261159        -7.1065 
  43   2.0000      -0.259066        -7.0495 
  44   2.0000      -0.239159        -6.5079 
  45   2.0000      -0.196353        -5.3430 
  46   0.0000      -0.048723        -1.3258 
  47   0.0000      -0.034705        -0.9444 
  48   0.0000      -0.030883        -0.8404 
  49   0.0000       0.045974         1.2510 
  50   0.0000       0.050784         1.3819 
  51   0.0000       0.071243         1.9386 
  52   0.0000       0.082162         2.2357 
  53   0.0000       0.096465         2.6250 
  54   0.0000       0.098617         2.6835 
  55   0.0000       0.100271         2.7285 
  56   0.0000       0.114274         3.1095 
  57   0.0000       0.119880         3.2621 
  58   0.0000       0.133808         3.6411 
  59   0.0000       0.147674         4.0184 
  60   0.0000       0.172917         4.7053 
  61   0.0000       0.173658         4.7255 
  62   0.0000       0.183991         5.0067 
  63   0.0000       0.185688         5.0528 
  64   0.0000       0.193665         5.2699 
  65   0.0000       0.204691         5.5699 
  66   0.0000       0.210537         5.7290 
  67   0.0000       0.218952         5.9580 
  68   0.0000       0.230577         6.2743 
  69   0.0000       0.237963         6.4753 
  70   0.0000       0.239549         6.5185 
  71   0.0000       0.246779         6.7152 
  72   0.0000       0.262786         7.1508 
  73   0.0000       0.275090         7.4856 
  74   0.0000       0.284785         7.7494 
  75   0.0000       0.299200         8.1416 
  76   0.0000       0.303666         8.2632 
  77   0.0000       0.314618         8.5612 
  78   0.0000       0.325587         8.8597 
  79   0.0000       0.327550         8.9131 
  80   0.0000       0.343707         9.3527 
  81   0.0000       0.365954         9.9581 
  82   0.0000       0.374132        10.1807 
  83   0.0000       0.387513        10.5448 
  84   0.0000       0.392444        10.6789 
  85   0.0000       0.399038        10.8584 
  86   0.0000       0.402969        10.9653 
  87   0.0000       0.406625        11.0648 
  88   0.0000       0.422374        11.4934 
  89   0.0000       0.428998        11.6736 
  90   0.0000       0.431527        11.7425 
  91   0.0000       0.446491        12.1496 
  92   0.0000       0.454421        12.3654 
  93   0.0000       0.462055        12.5732 
  94   0.0000       0.465865        12.6768 
  95   0.0000       0.500865        13.6292 
  96   0.0000       0.505292        13.7497 
  97   0.0000       0.525543        14.3008 
  98   0.0000       0.533427        14.5153 
  99   0.0000       0.541112        14.7244 
 100   0.0000       0.550754        14.9868 
 101   0.0000       0.580587        15.7986 
 102   0.0000       0.588399        16.0112 
 103   0.0000       0.592890        16.1333 
 104   0.0000       0.606819        16.5124 
 105   0.0000       0.619578        16.8596 
 106   0.0000       0.649884        17.6842 
 107   0.0000       0.655253        17.8303 
 108   0.0000       0.672521        18.3002 
 109   0.0000       0.718369        19.5478 
 110   0.0000       0.740244        20.1431 
 111   0.0000       0.768920        20.9234 
 112   0.0000       0.786688        21.4069 
 113   0.0000       0.824998        22.4493 
 114   0.0000       0.872108        23.7313 
 115   0.0000       0.879582        23.9346 
 116   0.0000       0.959372        26.1058 
 117   0.0000       0.987026        26.8583 
 118   0.0000       1.099233        29.9117 
 119   0.0000       1.184916        32.2432 
 120   0.0000       1.259858        34.2825 
 121   0.0000       1.278970        34.8026 
 122   0.0000       1.316800        35.8319 
 123   0.0000       1.327333        36.1186 
 124   0.0000       1.329053        36.1654 
 125   0.0000       1.333327        36.2817 
 126   0.0000       1.336137        36.3581 
 127   0.0000       1.369332        37.2614 
 128   0.0000       1.379281        37.5321 
 129   0.0000       1.388492        37.7828 
 130   0.0000       1.395076        37.9620 
 131   0.0000       1.409325        38.3497 
 132   0.0000       1.439645        39.1747 
 133   0.0000       1.446507        39.3615 
 134   0.0000       1.455579        39.6083 
 135   0.0000       1.461862        39.7793 
 136   0.0000       1.475157        40.1411 
 137   0.0000       1.496579        40.7240 
 138   0.0000       1.503140        40.9025 
 139   0.0000       1.513965        41.1971 
 140   0.0000       1.527001        41.5518 
 141   0.0000       1.543690        42.0059 
 142   0.0000       1.546004        42.0689 
 143   0.0000       1.550371        42.1877 
 144   0.0000       1.590478        43.2791 
 145   0.0000       1.613008        43.8922 
 146   0.0000       1.625845        44.2415 
 147   0.0000       1.630407        44.3656 
 148   0.0000       1.639388        44.6100 
 149   0.0000       1.674059        45.5535 
 150   0.0000       1.686435        45.8902 
 151   0.0000       1.692584        46.0575 
 152   0.0000       1.700604        46.2758 
 153   0.0000       1.734120        47.1878 
 154   0.0000       1.740374        47.3580 
 155   0.0000       1.750512        47.6339 
 156   0.0000       1.759829        47.8874 
 157   0.0000       1.775619        48.3171 
 158   0.0000       1.796289        48.8795 
 159   0.0000       1.829423        49.7811 
 160   0.0000       1.866291        50.7844 
 161   0.0000       2.035640        55.3926 
 162   0.0000       2.058442        56.0131 
 163   0.0000       2.116523        57.5935 
 164   0.0000       2.119056        57.6624 
 165   0.0000       2.154503        58.6270 
 166   0.0000       2.166655        58.9577 
 167   0.0000       2.171212        59.0817 
 168   0.0000       2.203556        59.9618 
 169   0.0000       2.222103        60.4665 
 170   0.0000       2.233895        60.7874 
 171   0.0000       2.255470        61.3745 
 172   0.0000       2.263923        61.6045 
 173   0.0000       2.270501        61.7835 
 174   0.0000       2.303097        62.6704 
 175   0.0000       2.315238        63.0008 
 176   0.0000       2.330614        63.4192 
 177   0.0000       2.383271        64.8521 
 178   0.0000       2.454766        66.7976 
 179   0.0000       2.542531        69.1858 
 180   0.0000       2.550965        69.4153 
 181   0.0000       2.559109        69.6369 
 182   0.0000       2.579259        70.1852 
 183   0.0000       2.619400        71.2775 
 184   0.0000       2.630021        71.5665 
 185   0.0000       2.649449        72.0952 
 186   0.0000       2.684155        73.0396 
 187   0.0000       2.700615        73.4875 
 188   0.0000       2.721490        74.0555 
 189   0.0000       2.730998        74.3142 
 190   0.0000       2.774785        75.5058 
 191   0.0000       2.807229        76.3886 
 192   0.0000       2.828756        76.9744 
 193   0.0000       2.839965        77.2794 
 194   0.0000       2.884624        78.4946 
 195   0.0000       2.969314        80.7991 
 196   0.0000       3.036064        82.6155 
 197   0.0000       3.078020        83.7572 
 198   0.0000       3.105513        84.5053 
 199   0.0000       3.116841        84.8135 
 200   0.0000       3.148470        85.6742 
 201   0.0000       3.430068        93.3369 
 202   0.0000       3.442569        93.6771 
 203   0.0000       3.649017        99.2948 
 204   0.0000       3.851652       104.8088 
 205   0.0000       7.336682       199.6413 
 206   0.0000      21.046990       572.7177 
 207   0.0000      21.540631       586.1504 
 208   0.0000      21.625511       588.4601 
 209   0.0000      21.766964       592.3092 
 210   0.0000      21.850284       594.5765 
 211   0.0000      21.942568       597.0876 
 212   0.0000      22.084401       600.9471 
 213   0.0000      43.421851      1181.5686 

                    ********************************
                    * MULLIKEN POPULATION ANALYSIS *
                    ********************************

-----------------------
MULLIKEN ATOMIC CHARGES
-----------------------
   0 Br:   -0.157296
   1 C :   -0.446944
   2 C :   -0.253434
   3 C :    0.166766
   4 C :   -0.150790
   5 C :   -0.201214
   6 C :   -0.035966
   7 C :   -0.165575
   8 H :    0.199370
   9 H :    0.199370
  10 H :    0.239093
  11 H :    0.214889
  12 H :    0.198620
  13 H :    0.209023
  14 H :    0.216910
  15 O :   -0.232822
Sum of atomic charges:    0.0000000

--------------------------------
MULLIKEN REDUCED ORBITAL CHARGES
--------------------------------
  0 Brs       :     7.965099  s :     7.965099
      pz      :     5.951247  p :    17.143081
      px      :     5.228296
      py      :     5.963539
      dz2     :     2.006016  d :    10.049116
      dxz     :     2.016455
      dyz     :     2.000370
      dx2y2   :     2.017845
      dxy     :     2.008429
  1 C s       :     3.338973  s :     3.338973
      pz      :     1.152351  p :     3.052259
      px      :     1.012940
      py      :     0.886967
      dz2     :     0.009564  d :     0.055712
      dxz     :     0.003276
      dyz     :     0.017942
      dx2y2   :     0.011724
      dxy     :     0.013206
  2 C s       :     3.120461  s :     3.120461
      pz      :     1.053264  p :     3.094023
      px      :     1.036387
      py      :     1.004372
      dz2     :     0.004023  d :     0.038950
      dxz     :     0.004963
      dyz     :     0.003201
      dx2y2   :     0.011459
      dxy     :     0.015304
  3 C s       :     3.154025  s :     3.154025
      pz      :     0.969538  p :     2.605767
      px      :     0.784636
      py      :     0.851592
      dz2     :     0.004392  d :     0.073442
      dxz     :     0.016511
      dyz     :     0.006868
      dx2y2   :     0.022389
      dxy     :     0.023282
  4 C s       :     3.103390  s :     3.103390
      pz      :     0.992634  p :     3.006181
      px      :     1.034697
      py      :     0.978851
      dz2     :     0.003947  d :     0.041219
      dxz     :     0.006554
      dyz     :     0.003239
      dx2y2   :     0.012485
      dxy     :     0.014994
  5 C s       :     3.142172  s :     3.142172
      pz      :     1.029215  p :     3.020035
      px      :     0.996474
      py      :     0.994346
      dz2     :     0.003979  d :     0.039007
      dxz     :     0.005604
      dyz     :     0.002690
      dx2y2   :     0.011404
      dxy     :     0.015330
  6 C s       :     3.279347  s :     3.279347
      pz      :     1.082988  p :     2.708952
      px      :     0.716774
      py      :     0.909191
      dz2     :     0.003467  d :     0.047667
      dxz     :     0.005633
      dyz     :     0.007033
      dx2y2   :     0.016250
      dxy     :     0.015284
  7 C s       :     3.101432  s :     3.101432
      pz      :     0.995427  p :     3.023010
      px      :     1.069610
      py      :     0.957973
      dz2     :     0.003940  d :     0.041132
      dxz     :     0.005869
      dyz     :     0.003863
      dx2y2   :     0.011937
      dxy     :     0.015524
  8 H s       :     0.800630  s :     0.800630
  9 H s       :     0.800630  s :     0.800630
 10 H s       :     0.760907  s :     0.760907
 11 H s       :     0.785111  s :     0.785111
 12 H s       :     0.801380  s :     0.801380
 13 H s       :     0.790977  s :     0.790977
 14 H s       :     0.783090  s :     0.783090
 15 O s       :     3.726225  s :     3.726225
      pz      :     1.787050  p :     4.473512
      px      :     1.175809
      py      :     1.510654
      dz2     :     0.005360  d :     0.033085
      dxz     :    -0.005931
      dyz     :     0.005821
      dx2y2   :     0.013363
      dxy     :     0.014472


                     *******************************
                     * LOEWDIN POPULATION ANALYSIS *
                     *******************************

----------------------
LOEWDIN ATOMIC CHARGES
----------------------
   0 Br:    0.164094
   1 C :   -0.053578
   2 C :   -0.153140
   3 C :    0.196610
   4 C :   -0.176249
   5 C :   -0.123461
   6 C :   -0.250426
   7 C :   -0.178133
   8 H :    0.182798
   9 H :    0.182798
  10 H :    0.194966
  11 H :    0.185136
  12 H :    0.192895
  13 H :    0.194396
  14 H :    0.185363
  15 O :   -0.744069

-------------------------------
LOEWDIN REDUCED ORBITAL CHARGES
-------------------------------
  0 Brs       :     7.680160  s :     7.680160
      pz      :     5.927418  p :    17.086879
      px      :     5.236009
      py      :     5.923452
      dz2     :     2.009489  d :    10.068867
      dxz     :     2.020306
      dyz     :     2.000366
      dx2y2   :     2.028276
      dxy     :     2.010429
  1 C s       :     2.912704  s :     2.912704
      pz      :     1.106320  p :     3.036556
      px      :     0.996904
      py      :     0.933332
      dz2     :     0.016030  d :     0.104317
      dxz     :     0.005085
      dyz     :     0.032230
      dx2y2   :     0.023875
      dxy     :     0.027096
  2 C s       :     2.895049  s :     2.895049
      pz      :     1.036991  p :     3.182816
      px      :     1.073909
      py      :     1.071916
      dz2     :     0.006298  d :     0.075274
      dxz     :     0.008799
      dyz     :     0.005215
      dx2y2   :     0.025381
      dxy     :     0.029582
  3 C s       :     2.779819  s :     2.779819
      pz      :     0.900717  p :     2.864174
      px      :     0.888724
      py      :     1.074733
      dz2     :     0.010852  d :     0.159396
      dxz     :     0.031413
      dyz     :     0.011733
      dx2y2   :     0.050974
      dxy     :     0.054424
  4 C s       :     2.911331  s :     2.911331
      pz      :     0.990851  p :     3.183654
      px      :     1.100939
      py      :     1.091865
      dz2     :     0.006406  d :     0.081264
      dxz     :     0.012202
      dyz     :     0.005398
      dx2y2   :     0.026352
      dxy     :     0.030906
  5 C s       :     2.894611  s :     2.894611
      pz      :     1.012522  p :     3.153955
      px      :     1.070208
      py      :     1.071225
      dz2     :     0.006194  d :     0.074895
      dxz     :     0.009842
      dyz     :     0.004226
      dx2y2   :     0.024837
      dxy     :     0.029795
  6 C s       :     2.923914  s :     2.923914
      pz      :     1.080845  p :     3.229654
      px      :     1.007662
      py      :     1.141147
      dz2     :     0.006815  d :     0.096858
      dxz     :     0.009345
      dyz     :     0.012572
      dx2y2   :     0.034382
      dxy     :     0.033744
  7 C s       :     2.911314  s :     2.911314
      pz      :     0.991979  p :     3.185811
      px      :     1.107031
      py      :     1.086800
      dz2     :     0.006393  d :     0.081009
      dxz     :     0.010700
      dyz     :     0.006741
      dx2y2   :     0.026002
      dxy     :     0.031173
  8 H s       :     0.817202  s :     0.817202
  9 H s       :     0.817202  s :     0.817202
 10 H s       :     0.805034  s :     0.805034
 11 H s       :     0.814864  s :     0.814864
 12 H s       :     0.807105  s :     0.807105
 13 H s       :     0.805604  s :     0.805604
 14 H s       :     0.814637  s :     0.814637
 15 O s       :     3.453911  s :     3.453911
      pz      :     1.774020  p :     4.722015
      px      :     1.353874
      py      :     1.594121
      dz2     :     0.058059  d :     0.568143
      dxz     :     0.106051
      dyz     :     0.072138
      dx2y2   :     0.167117
      dxy     :     0.164778


                      *****************************
                      * MAYER POPULATION ANALYSIS *
                      *****************************

  NA   - Mulliken gross atomic population
  ZA   - Total nuclear charge
  QA   - Mulliken gross atomic charge
  VA   - Mayer's total valence
  BVA  - Mayer's bonded valence
  FA   - Mayer's free valence

  ATOM       NA         ZA         QA         VA         BVA        FA
  0 Br    35.1573    35.0000    -0.1573     1.0932     1.0932     0.0000
  1 C      6.4469     6.0000    -0.4469     3.7347     3.7347     0.0000
  2 C      6.2534     6.0000    -0.2534     3.7404     3.7404     0.0000
  3 C      5.8332     6.0000     0.1668     4.0095     4.0095     0.0000
  4 C      6.1508     6.0000    -0.1508     3.7956     3.7956     0.0000
  5 C      6.2012     6.0000    -0.2012     3.9024     3.9024     0.0000
  6 C      6.0360     6.0000    -0.0360     3.7073     3.7073     0.0000
  7 C      6.1656     6.0000    -0.1656     3.7849     3.7849     0.0000
  8 H      0.8006     1.0000     0.1994     0.9315     0.9315     0.0000
  9 H      0.8006     1.0000     0.1994     0.9315     0.9315    -0.0000
 10 H      0.7609     1.0000     0.2391     0.9170     0.9170     0.0000
 11 H      0.7851     1.0000     0.2149     0.9239     0.9239     0.0000
 12 H      0.8014     1.0000     0.1986     0.9360     0.9360     0.0000
 13 H      0.7910     1.0000     0.2090     0.9413     0.9413     0.0000
 14 H      0.7831     1.0000     0.2169     0.9201     0.9201     0.0000
 15 O      8.2328     8.0000    -0.2328     2.0443     2.0443    -0.0000

  Mayer bond orders larger than 0.100000
B(  0-Br,  6-C ) :   0.9975 B(  1-C ,  8-H ) :   0.9407 B(  1-C ,  9-H ) :   0.9407 
B(  1-C , 13-H ) :   0.9507 B(  1-C , 15-O ) :   0.8407 B(  2-C ,  3-C ) :   1.3480 
B(  2-C ,  4-C ) :   1.4490 B(  2-C , 10-H ) :   0.8673 B(  3-C ,  5-C ) :   1.4020 
B(  3-C , 15-O ) :   1.1458 B(  4-C ,  6-C ) :   1.3493 B(  4-C , 11-H ) :   0.8937 
B(  5-C ,  7-C ) :   1.5044 B(  5-C , 12-H ) :   0.9160 B(  6-C ,  7-C ) :   1.2949 
B(  7-C , 14-H ) :   0.8923 

-------
TIMINGS
-------

Total SCF time: 0 days 0 hours 0 min 7 sec 

Total time                  ....       7.736 sec
Sum of individual times     ....       7.209 sec  ( 93.2%)

Fock matrix formation       ....       6.150 sec  ( 79.5%)
  Split-RI-J                ....       1.190 sec  ( 19.3% of F)
  XC integration            ....       1.850 sec  ( 30.1% of F)
    Basis function eval.    ....       0.088 sec  (  4.8% of XC)
    Density eval.           ....       0.071 sec  (  3.8% of XC)
    XC-Functional eval.     ....       0.033 sec  (  1.8% of XC)
    XC-Potential eval.      ....       0.068 sec  (  3.7% of XC)
Diagonalization             ....       0.251 sec  (  3.2%)
Density matrix formation    ....       0.011 sec  (  0.1%)
Population analysis         ....       0.076 sec  (  1.0%)
Initial guess               ....       0.017 sec  (  0.2%)
Orbital Transformation      ....       0.000 sec  (  0.0%)
Orbital Orthonormalization  ....       0.000 sec  (  0.0%)
DIIS solution               ....       0.122 sec  (  1.6%)
SOSCF solution              ....       0.119 sec  (  1.5%)
Grid generation             ....       0.462 sec  (  6.0%)

Maximum memory used throughout the entire SCF-calculation: 30.0 MB


-------------------------------------------------------------------------------
                          DFT DISPERSION CORRECTION                            
                                                                               
                              DFTD3 V3.1  Rev 1                                
                          USING Becke-Johnson damping                          
-------------------------------------------------------------------------------
The B97-3c composite method is recognized
Using three-body term ABC
Active option DFTDOPT                   ...         4   

molecular C6(AA) [au] = 3931.065976 


            DFT-D V3
 parameters
 s6 scaling factor         :     1.0000 
 a1 scaling factor         :     0.3700 
 s8 scaling factor         :     1.5000 
 a2 scaling factor         :     4.1000 
 Damping factor alpha9(ATM):    16.0000 
 ad hoc parameters k1-k3   :    16.0000     1.3333    -4.0000 

 Edisp/kcal,au: -25.220999150571  -0.040192216218 
 E6   /kcal   : -12.128617463 
 E8   /kcal   : -13.093281950 
 E6(ABC)      :   0.000900262 
 % E8         :  51.914207964 
 % E6(ABC)    :  -0.003569495 

-------------------------   ----------------
Dispersion correction           -0.040192216
-------------------------   ----------------

------------------   -----------------
SRB correction            -0.048241351
------------------   -----------------

-------------------------   --------------------
FINAL SINGLE POINT ENERGY     -2921.098635055168
-------------------------   --------------------



           ************************************************************
           *        Program running with 48 parallel MPI-processes    *
           *              working on a common directory               *
           ************************************************************
------------------------------------------------------------------------------
                         ORCA SCF GRADIENT CALCULATION
------------------------------------------------------------------------------

Gradient of the Kohn-Sham DFT energy:
Kohn-Sham wavefunction type      ... RKS
Hartree-Fock exchange scaling    ...    0.000
Number of operators              ...    1
Number of atoms                  ...   16
Basis set dimensions             ...  214
Integral neglect threshold       ... 2.5e-11
Integral primitive cutoff        ... 2.5e-12
SHARK Integral package           ... ON

Nuc. rep. gradient       (SHARK) ... done (  0.0 sec)
HCore & Overlap gradient (SHARK) ... done (  0.0 sec)
RI-J gradient            (SHARK) ... done (  0.2 sec)
Exchange-correlation gradient    ... done
Dispersion correction            ... done
SRB correction                   ... done

------------------
CARTESIAN GRADIENT
------------------

   1   Br  :    0.003524806    0.000229257    0.000000156
   2   C   :   -0.005106804    0.006770363    0.000000538
   3   C   :    0.000764681   -0.001630209   -0.000000014
   4   C   :    0.014025303    0.002569862    0.000001147
   5   C   :   -0.001078391   -0.003230894   -0.000000254
   6   C   :    0.001332802    0.002650560    0.000000090
   7   C   :   -0.011151039   -0.000414956   -0.000000742
   8   C   :   -0.002152638    0.002542840   -0.000000124
   9   H   :   -0.000789309   -0.002488068    0.004735821
  10   H   :   -0.000788374   -0.002487675   -0.004736270
  11   H   :    0.003158912   -0.004999030    0.000000123
  12   H   :   -0.002565685   -0.005031133   -0.000000127
  13   H   :    0.002305903    0.004841931    0.000000295
  14   H   :    0.006047169    0.002106844    0.000000162
  15   H   :   -0.003331523    0.004621792   -0.000000079
  16   O   :   -0.004195813   -0.006051485   -0.000000723

Difference to translation invariance:
           :   -0.0000000005   -0.0000000000    0.0000000000

Difference to rotation invariance:
           :   -0.0000000552   -0.0000003558    0.0003308014

Norm of the cartesian gradient     ...    0.0269957891
RMS gradient                       ...    0.0038965065
MAX gradient                       ...    0.0140253033

-------
TIMINGS
-------

Total SCF gradient time            ...        0.720 sec

One electron gradient       ....       0.011 sec  (  1.6%)
RI-J Coulomb gradient       ....       0.229 sec  ( 31.8%)
XC gradient                 ....       0.124 sec  ( 17.2%)
CPCM gradient               ....       0.085 sec  ( 11.7%)
   A-Matrix (El+Nuc)        ....       0.034 sec  (  4.8%)
   Potential                ....       0.050 sec  (  7.0%)

Maximum memory used throughout the entire SCFGRAD-calculation: 32.3 MB

                            ***************************************
                            *     ORCA property calculations      *
                            ***************************************

                                    ---------------------
                                    Active property flags
                                    ---------------------
   (+) Dipole Moment


------------------------------------------------------------------------------
                       ORCA ELECTRIC PROPERTIES CALCULATION
------------------------------------------------------------------------------

Dipole Moment Calculation                       ... on
Quadrupole Moment Calculation                   ... off
Polarizability Calculation                      ... off
GBWName                                         ... QJPJQTDYNZXKQF-UHFFFAOYSA-N-FullTZ.gbw
Electron density                                ... QJPJQTDYNZXKQF-UHFFFAOYSA-N-FullTZ.scfp
The origin for moment calculation is the CENTER OF MASS  = (-0.010371, -0.001157 -0.000258)

-------------
DIPOLE MOMENT
-------------
                                X             Y             Z
Electronic contribution:    -37.52672       0.81677      -0.00259
Nuclear contribution   :     38.95506      -1.39088       0.00269
                        -----------------------------------------
Total Dipole Moment    :      1.42834      -0.57411       0.00009
                        -----------------------------------------
Magnitude (a.u.)       :      1.53940
Magnitude (Debye)      :      3.91285



--------------------
Rotational spectrum 
--------------------
 
Rotational constants in cm-1:     0.159598     0.015085     0.013819 
Rotational constants in MHz :  4784.629300   452.232562   414.283039 

 Dipole components along the rotational axes: 
x,y,z [a.u.] :     1.428136     0.574621     0.000006 
x,y,z [Debye]:     3.630034     1.460571     0.000014 

 
DisplAtoms
	  0         0     
	  1         1     
	  2         2     
	  3         3     
	  4         4     
	  5         5     
	  6         6     
	  7         7     
	  8         8     
	  9         9     
	 10        10     
	 11        11     
	 12        12     
	 13        13     
	 14        14     
	 15        15     


----------------------------------------------------------------------------
                           ORCA NUMERICAL FREQUENCIES
                              (48-process run)
----------------------------------------------------------------------------

Number of atoms                ... 16
Central differences            ... used
Number of displacements        ... 96
Numerical increment            ... 5.000e-03 bohr
IR-spectrum generation         ... on
Raman-spectrum generation      ... off
Surface Crossing Hessian       ... off

The output will be reduced. Please look at the following files:
SCF program output             ... >QJPJQTDYNZXKQF-UHFFFAOYSA-N-FullTZ.lastscf
Integral program output        ... >QJPJQTDYNZXKQF-UHFFFAOYSA-N-FullTZ.lastint
Gradient program output        ... >QJPJQTDYNZXKQF-UHFFFAOYSA-N-FullTZ.lastgrad
Dipole moment program output   ... >QJPJQTDYNZXKQF-UHFFFAOYSA-N-FullTZ.lastmom
AutoCI program output          ... >QJPJQTDYNZXKQF-UHFFFAOYSA-N-FullTZ.lastautoci

	<< Calculating on displaced geometry   8 (of  96) >>
	<< Calculating on displaced geometry  40 (of  96) >>
	<< Calculating on displaced geometry  19 (of  96) >>
	<< Calculating on displaced geometry  48 (of  96) >>
	<< Calculating on displaced geometry  28 (of  96) >>
	<< Calculating on displaced geometry   7 (of  96) >>
	<< Calculating on displaced geometry  33 (of  96) >>
	<< Calculating on displaced geometry   9 (of  96) >>
	<< Calculating on displaced geometry  14 (of  96) >>
	<< Calculating on displaced geometry  10 (of  96) >>
	<< Calculating on displaced geometry  17 (of  96) >>
	<< Calculating on displaced geometry  43 (of  96) >>
	<< Calculating on displaced geometry  41 (of  96) >>
	<< Calculating on displaced geometry   3 (of  96) >>
	<< Calculating on displaced geometry  24 (of  96) >>
	<< Calculating on displaced geometry  30 (of  96) >>
	<< Calculating on displaced geometry  35 (of  96) >>
	<< Calculating on displaced geometry  15 (of  96) >>
	<< Calculating on displaced geometry   6 (of  96) >>
	<< Calculating on displaced geometry  46 (of  96) >>
	<< Calculating on displaced geometry  27 (of  96) >>
	<< Calculating on displaced geometry   4 (of  96) >>
	<< Calculating on displaced geometry  39 (of  96) >>
	<< Calculating on displaced geometry   2 (of  96) >>
	<< Calculating on displaced geometry  18 (of  96) >>
	<< Calculating on displaced geometry  29 (of  96) >>
	<< Calculating on displaced geometry  38 (of  96) >>
	<< Calculating on displaced geometry  37 (of  96) >>
	<< Calculating on displaced geometry   5 (of  96) >>
	<< Calculating on displaced geometry  31 (of  96) >>
	<< Calculating on displaced geometry  11 (of  96) >>
	<< Calculating on displaced geometry  12 (of  96) >>
	<< Calculating on displaced geometry  26 (of  96) >>
	<< Calculating on displaced geometry  42 (of  96) >>
	<< Calculating on displaced geometry  20 (of  96) >>
	<< Calculating on displaced geometry  36 (of  96) >>
	<< Calculating on displaced geometry  22 (of  96) >>
	<< Calculating on displaced geometry  25 (of  96) >>
	<< Calculating on displaced geometry  47 (of  96) >>
	<< Calculating on displaced geometry  34 (of  96) >>
	<< Calculating on displaced geometry   1 (of  96) >>
	<< Calculating on displaced geometry  45 (of  96) >>
	<< Calculating on displaced geometry  13 (of  96) >>
	<< Calculating on displaced geometry  16 (of  96) >>
	<< Calculating on displaced geometry  21 (of  96) >>
	<< Calculating on displaced geometry  23 (of  96) >>
	<< Calculating on displaced geometry  44 (of  96) >>
	<< Calculating on displaced geometry  32 (of  96) >>
	<< Calculating on displaced geometry  51 (of  96) >>
	<< Calculating on displaced geometry  49 (of  96) >>
	<< Calculating on displaced geometry  50 (of  96) >>
	<< Calculating on displaced geometry  56 (of  96) >>
	<< Calculating on displaced geometry  57 (of  96) >>
	<< Calculating on displaced geometry  55 (of  96) >>
	<< Calculating on displaced geometry  63 (of  96) >>
	<< Calculating on displaced geometry  62 (of  96) >>
	<< Calculating on displaced geometry  66 (of  96) >>
	<< Calculating on displaced geometry  54 (of  96) >>
	<< Calculating on displaced geometry  58 (of  96) >>
	<< Calculating on displaced geometry  64 (of  96) >>
	<< Calculating on displaced geometry  52 (of  96) >>
	<< Calculating on displaced geometry  53 (of  96) >>
	<< Calculating on displaced geometry  65 (of  96) >>
	<< Calculating on displaced geometry  59 (of  96) >>
	<< Calculating on displaced geometry  61 (of  96) >>
	<< Calculating on displaced geometry  60 (of  96) >>
	<< Calculating on displaced geometry  67 (of  96) >>
	<< Calculating on displaced geometry  68 (of  96) >>
	<< Calculating on displaced geometry  69 (of  96) >>
	<< Calculating on displaced geometry  70 (of  96) >>
	<< Calculating on displaced geometry  71 (of  96) >>
	<< Calculating on displaced geometry  73 (of  96) >>
	<< Calculating on displaced geometry  74 (of  96) >>
	<< Calculating on displaced geometry  75 (of  96) >>
	<< Calculating on displaced geometry  72 (of  96) >>
	<< Calculating on displaced geometry  77 (of  96) >>
	<< Calculating on displaced geometry  78 (of  96) >>
	<< Calculating on displaced geometry  87 (of  96) >>
	<< Calculating on displaced geometry  88 (of  96) >>
	<< Calculating on displaced geometry  82 (of  96) >>
	<< Calculating on displaced geometry  79 (of  96) >>
	<< Calculating on displaced geometry  84 (of  96) >>
	<< Calculating on displaced geometry  81 (of  96) >>
	<< Calculating on displaced geometry  76 (of  96) >>
	<< Calculating on displaced geometry  80 (of  96) >>
	<< Calculating on displaced geometry  83 (of  96) >>
	<< Calculating on displaced geometry  86 (of  96) >>
	<< Calculating on displaced geometry  91 (of  96) >>
	<< Calculating on displaced geometry  90 (of  96) >>
	<< Calculating on displaced geometry  85 (of  96) >>
	<< Calculating on displaced geometry  89 (of  96) >>
	<< Calculating on displaced geometry  92 (of  96) >>
	<< Calculating on displaced geometry  93 (of  96) >>
	<< Calculating on displaced geometry  94 (of  96) >>
	<< Calculating on displaced geometry  95 (of  96) >>
	<< Calculating on displaced geometry  96 (of  96) >>

-----------------------
VIBRATIONAL FREQUENCIES
-----------------------

Scaling factor for frequencies =  1.000000000 (already applied!)

   0:         0.00 cm**-1
   1:         0.00 cm**-1
   2:         0.00 cm**-1
   3:         0.00 cm**-1
   4:         0.00 cm**-1
   5:         0.00 cm**-1
   6:        86.61 cm**-1
   7:       140.35 cm**-1
   8:       178.15 cm**-1
   9:       262.75 cm**-1
  10:       302.07 cm**-1
  11:       319.35 cm**-1
  12:       374.63 cm**-1
  13:       429.22 cm**-1
  14:       485.77 cm**-1
  15:       510.68 cm**-1
  16:       607.71 cm**-1
  17:       636.64 cm**-1
  18:       638.32 cm**-1
  19:       799.78 cm**-1
  20:       824.41 cm**-1
  21:       831.25 cm**-1
  22:       923.83 cm**-1
  23:       933.28 cm**-1
  24:      1003.27 cm**-1
  25:      1037.70 cm**-1
  26:      1065.84 cm**-1
  27:      1126.86 cm**-1
  28:      1187.17 cm**-1
  29:      1192.34 cm**-1
  30:      1216.95 cm**-1
  31:      1267.93 cm**-1
  32:      1300.76 cm**-1
  33:      1324.72 cm**-1
  34:      1414.02 cm**-1
  35:      1477.43 cm**-1
  36:      1492.52 cm**-1
  37:      1499.66 cm**-1
  38:      1506.42 cm**-1
  39:      1557.57 cm**-1
  40:      1588.25 cm**-1
  41:      2909.81 cm**-1
  42:      2972.04 cm**-1
  43:      3025.68 cm**-1
  44:      3073.28 cm**-1
  45:      3077.55 cm**-1
  46:      3086.10 cm**-1
  47:      3100.16 cm**-1


------------
NORMAL MODES
------------

These modes are the cartesian displacements weighted by the diagonal matrix
M(i,i)=1/sqrt(m[i]) where m[i] is the mass of the displaced atom
Thus, these vectors are normalized but *not* orthogonal

                  0          1          2          3          4          5    
      0       0.000000   0.000000   0.000000   0.000000   0.000000   0.000000
      1       0.000000   0.000000   0.000000   0.000000   0.000000   0.000000
      2       0.000000   0.000000   0.000000   0.000000   0.000000   0.000000
      3       0.000000   0.000000   0.000000   0.000000   0.000000   0.000000
      4       0.000000   0.000000   0.000000   0.000000   0.000000   0.000000
      5       0.000000   0.000000   0.000000   0.000000   0.000000   0.000000
      6       0.000000   0.000000   0.000000   0.000000   0.000000   0.000000
      7       0.000000   0.000000   0.000000   0.000000   0.000000   0.000000
      8       0.000000   0.000000   0.000000   0.000000   0.000000   0.000000
      9       0.000000   0.000000   0.000000   0.000000   0.000000   0.000000
     10       0.000000   0.000000   0.000000   0.000000   0.000000   0.000000
     11       0.000000   0.000000   0.000000   0.000000   0.000000   0.000000
     12       0.000000   0.000000   0.000000   0.000000   0.000000   0.000000
     13       0.000000   0.000000   0.000000   0.000000   0.000000   0.000000
     14       0.000000   0.000000   0.000000   0.000000   0.000000   0.000000
     15       0.000000   0.000000   0.000000   0.000000   0.000000   0.000000
     16       0.000000   0.000000   0.000000   0.000000   0.000000   0.000000
     17       0.000000   0.000000   0.000000   0.000000   0.000000   0.000000
     18       0.000000   0.000000   0.000000   0.000000   0.000000   0.000000
     19       0.000000   0.000000   0.000000   0.000000   0.000000   0.000000
     20       0.000000   0.000000   0.000000   0.000000   0.000000   0.000000
     21       0.000000   0.000000   0.000000   0.000000   0.000000   0.000000
     22       0.000000   0.000000   0.000000   0.000000   0.000000   0.000000
     23       0.000000   0.000000   0.000000   0.000000   0.000000   0.000000
     24       0.000000   0.000000   0.000000   0.000000   0.000000   0.000000
     25       0.000000   0.000000   0.000000   0.000000   0.000000   0.000000
     26       0.000000   0.000000   0.000000   0.000000   0.000000   0.000000
     27       0.000000   0.000000   0.000000   0.000000   0.000000   0.000000
     28       0.000000   0.000000   0.000000   0.000000   0.000000   0.000000
     29       0.000000   0.000000   0.000000   0.000000   0.000000   0.000000
     30       0.000000   0.000000   0.000000   0.000000   0.000000   0.000000
     31       0.000000   0.000000   0.000000   0.000000   0.000000   0.000000
     32       0.000000   0.000000   0.000000   0.000000   0.000000   0.000000
     33       0.000000   0.000000   0.000000   0.000000   0.000000   0.000000
     34       0.000000   0.000000   0.000000   0.000000   0.000000   0.000000
     35       0.000000   0.000000   0.000000   0.000000   0.000000   0.000000
     36       0.000000   0.000000   0.000000   0.000000   0.000000   0.000000
     37       0.000000   0.000000   0.000000   0.000000   0.000000   0.000000
     38       0.000000   0.000000   0.000000   0.000000   0.000000   0.000000
     39       0.000000   0.000000   0.000000   0.000000   0.000000   0.000000
     40       0.000000   0.000000   0.000000   0.000000   0.000000   0.000000
     41       0.000000   0.000000   0.000000   0.000000   0.000000   0.000000
     42       0.000000   0.000000   0.000000   0.000000   0.000000   0.000000
     43       0.000000   0.000000   0.000000   0.000000   0.000000   0.000000
     44       0.000000   0.000000   0.000000   0.000000   0.000000   0.000000
     45       0.000000   0.000000   0.000000   0.000000   0.000000   0.000000
     46       0.000000   0.000000   0.000000   0.000000   0.000000   0.000000
     47       0.000000   0.000000   0.000000   0.000000   0.000000   0.000000
                  6          7          8          9         10         11    
      0      -0.000007  -0.000003  -0.038437  -0.206293   0.000004   0.072304
      1       0.000002   0.000008   0.094893  -0.054595   0.000001  -0.031944
      2       0.084983  -0.034440  -0.000001  -0.000015  -0.025310   0.000004
      3      -0.000007   0.000013   0.212502   0.345006   0.000002   0.149257
      4       0.000008   0.000023   0.255555  -0.016152   0.000001   0.145921
      5       0.315537   0.205328  -0.000016   0.000013   0.020585   0.000004
      6       0.000016   0.000005   0.046648   0.050406   0.000013  -0.186946
      7      -0.000003  -0.000012  -0.144851   0.053478   0.000002  -0.104954
      8      -0.247410  -0.038275   0.000019   0.000012  -0.215111  -0.000005
      9       0.000007   0.000008   0.002823   0.198608   0.000011  -0.107225
     10      -0.000005  -0.000010  -0.117273  -0.018079   0.000002  -0.149415
     11      -0.104034  -0.088903   0.000012   0.000016  -0.178505  -0.000004
     12       0.000017  -0.000004   0.024412   0.018331  -0.000013  -0.190750
     13      -0.000000  -0.000014  -0.187607   0.159346  -0.000003   0.100370
     14      -0.274323   0.060840   0.000001   0.000001   0.143959  -0.000012
     15       0.000005  -0.000008  -0.042651   0.194297   0.000014   0.020954
     16      -0.000006  -0.000018  -0.153521  -0.000814   0.000004  -0.056574
     17      -0.095016   0.101030  -0.000008   0.000011  -0.241715   0.000004
     18       0.000010  -0.000011  -0.004128  -0.014585  -0.000025  -0.045711
     19      -0.000002  -0.000015  -0.196984   0.155932  -0.000006   0.183575
     20      -0.165900   0.141402  -0.000008   0.000009   0.326613  -0.000002
     21       0.000007  -0.000015  -0.022156   0.145189  -0.000011   0.019184
     22      -0.000003  -0.000017  -0.192633   0.104212  -0.000002   0.149812
     23      -0.115953   0.209827  -0.000027   0.000004   0.121573  -0.000002
     24      -0.147465  -0.167792   0.338922   0.408580  -0.194703   0.316012
     25       0.083899   0.310613   0.222462  -0.028696  -0.266437   0.102090
     26       0.349003   0.389764  -0.000272   0.001518  -0.194127   0.000446
     27       0.147466   0.167831   0.338881   0.408584   0.194739   0.316041
     28      -0.083891  -0.310585   0.222535  -0.028660   0.266446   0.102126
     29       0.349023   0.389780   0.000213  -0.001507  -0.194090  -0.000446
     30       0.000016   0.000011   0.088380  -0.031448   0.000018  -0.246690
     31      -0.000004  -0.000011  -0.122247  -0.005001   0.000003  -0.149812
     32      -0.292746  -0.127998   0.000025  -0.000006  -0.319762  -0.000015
     33       0.000020  -0.000003   0.053826   0.010760  -0.000017  -0.347551
     34       0.000001  -0.000013  -0.202742   0.162335  -0.000003   0.176986
     35      -0.331524   0.034279   0.000011   0.000001   0.165775  -0.000010
     36       0.000001  -0.000001  -0.067115   0.209223   0.000020   0.178142
     37      -0.000007  -0.000022  -0.141824  -0.006579   0.000006  -0.134873
     38      -0.024276   0.122951  -0.000017   0.000001  -0.346188   0.000017
     39      -0.000021  -0.000002   0.131376   0.302941  -0.000023   0.045385
     40       0.000021   0.000052   0.465911   0.095466  -0.000003   0.418237
     41       0.436957   0.245107  -0.000027   0.000021   0.364293   0.000023
     42       0.000004  -0.000019  -0.044063   0.263871  -0.000014   0.105804
     43      -0.000004  -0.000018  -0.208286   0.185955  -0.000003   0.208514
     44      -0.058778   0.309046  -0.000041   0.000015   0.128082   0.000002
     45      -0.000005   0.000024  -0.024228   0.227539  -0.000013  -0.128043
     46      -0.000001   0.000007   0.064769  -0.079729  -0.000003  -0.087787
     47       0.064474  -0.357748   0.000033   0.000025   0.168320  -0.000009
                 12         13         14         15         16         17    
      0       0.000001  -0.000000   0.037303   0.000004  -0.044229   0.000026
      1      -0.000000  -0.000000   0.011167   0.000001  -0.002186  -0.000022
      2      -0.004940  -0.001519   0.000003  -0.002780  -0.000003  -0.001981
      3       0.000003  -0.000000   0.249835   0.000014  -0.027551  -0.000055
      4       0.000002   0.000001  -0.126874  -0.000011   0.045125   0.000108
      5       0.003020   0.003522   0.000013  -0.006842  -0.000001   0.004714
      6       0.000000   0.000014  -0.071833  -0.000008   0.076924  -0.000727
      7      -0.000001   0.000006   0.179263   0.000018   0.000165   0.000407
      8      -0.031196  -0.246323  -0.000012   0.011207   0.000006   0.192774
      9      -0.000000   0.000002  -0.036690  -0.000020  -0.173530   0.000106
     10      -0.000002  -0.000001   0.142280   0.000009   0.061172   0.000259
     11      -0.014986  -0.010420  -0.000005   0.246221  -0.000022  -0.400933
     12      -0.000001  -0.000017  -0.039079   0.000008   0.146691  -0.000683
     13       0.000002  -0.000002  -0.022222   0.000001  -0.154506  -0.000433
     14      -0.025256   0.221139   0.000023  -0.153905   0.000004  -0.200684
     15       0.000003  -0.000014  -0.161989  -0.000014   0.128821   0.000550
     16      -0.000001  -0.000006   0.133532   0.000011   0.274595   0.000310
     17      -0.048206   0.229553  -0.000017   0.014464   0.000018   0.184955
     18      -0.000004  -0.000002  -0.101087  -0.000028   0.264857  -0.000149
     19       0.000002   0.000001  -0.081249  -0.000014  -0.040830  -0.000254
     20       0.046919   0.020325  -0.000051   0.293693   0.000025   0.255209
     21      -0.000003   0.000017  -0.185134  -0.000003   0.160548   0.000640
     22       0.000001   0.000003  -0.057201  -0.000003   0.081881  -0.000489
     23       0.044892  -0.223828   0.000009  -0.148834   0.000007  -0.195652
     24       0.396996   0.104935   0.388040  -0.042574   0.217162   0.024595
     25       0.287909   0.087870  -0.149880   0.018602  -0.013490  -0.029479
     26       0.269336   0.082861   0.005163  -0.002224   0.004990  -0.009976
     27      -0.397029  -0.104953   0.388028   0.042625   0.217159  -0.024964
     28      -0.287915  -0.087873  -0.149883  -0.018630  -0.013492   0.029738
     29       0.269270   0.082844  -0.005112  -0.002219  -0.004956  -0.009971
     30       0.000000   0.000021   0.031176   0.000020   0.337837  -0.000656
     31      -0.000001   0.000006   0.241766   0.000026   0.171132   0.000459
     32      -0.006305  -0.417877   0.000027  -0.352830   0.000036   0.586654
     33      -0.000002  -0.000028   0.072565   0.000045   0.128718  -0.000453
     34       0.000004  -0.000007  -0.076370   0.000002  -0.145214  -0.000555
     35      -0.051405   0.442620   0.000055  -0.518882   0.000015  -0.001699
     36       0.000009  -0.000024  -0.342690   0.000005   0.248526   0.000247
     37      -0.000003  -0.000009   0.225320   0.000024   0.215045   0.000445
     38      -0.072795   0.391917   0.000015  -0.379074   0.000035   0.521650
     39       0.000045   0.000012   0.162359   0.000003  -0.170519   0.000030
[...]
     34      -0.069131   0.086840  -0.095784  -0.244164   0.293831   0.051470
     35       0.000000  -0.000014  -0.000003   0.000025  -0.000024  -0.000010
     36      -0.024740  -0.225297  -0.210911  -0.360023  -0.413583  -0.180923
     37       0.010240   0.187729   0.085654   0.179117   0.326068   0.065430
     38       0.000004  -0.000008  -0.000016  -0.000020  -0.000024  -0.000012
     39      -0.368885  -0.070465   0.189390  -0.030938  -0.010566   0.151899
     40       0.603819   0.192931  -0.202458   0.010672  -0.034055  -0.424190
     41      -0.000053  -0.000003   0.000023  -0.000005  -0.000002  -0.000164
     42      -0.031716  -0.342433  -0.381012  -0.445332   0.160888  -0.176794
     43       0.004590  -0.056352  -0.217711  -0.322241   0.262386  -0.087092
     44      -0.000010  -0.000025  -0.000025  -0.000035   0.000016  -0.000012
     45       0.006386  -0.225704  -0.221135   0.018994  -0.007963  -0.020817
     46       0.056380   0.059138  -0.020948   0.023097   0.041842   0.014499
     47      -0.000003  -0.000015  -0.000014   0.000002  -0.000000   0.000001
                 36         37         38         39         40         41    
      0       0.000000   0.000017  -0.000538  -0.000226   0.000795   0.000010
      1       0.000000   0.000107  -0.000018   0.001229   0.000187   0.000004
      2      -0.000018   0.000000  -0.000000   0.000000   0.000000   0.000000
      3      -0.000007   0.051049  -0.022125   0.009735   0.027958   0.008065
      4       0.000014   0.015327   0.048197   0.011566  -0.026817  -0.046835
      5      -0.055723   0.000003  -0.000002   0.000001   0.000001  -0.000001
      6       0.000008  -0.009860  -0.017691  -0.092263   0.252284  -0.000290
      7       0.000007   0.001236  -0.049380  -0.226637   0.081449   0.001403
      8       0.000772  -0.000001  -0.000003  -0.000010   0.000019   0.000000
      9      -0.000006  -0.029804   0.108608   0.014760  -0.235190  -0.002942
     10       0.000003  -0.003535  -0.018752   0.334993   0.005148  -0.000287
     11      -0.001028  -0.000002   0.000008   0.000007  -0.000016  -0.000000
     12       0.000005   0.021341  -0.105614  -0.127353  -0.217941  -0.000184
     13      -0.000007  -0.002123   0.062880   0.210075   0.043305   0.000202
     14       0.000413   0.000002  -0.000005  -0.000006  -0.000013  -0.000000
     15       0.000008   0.010835  -0.011781   0.079547   0.288110   0.000564
     16      -0.000009  -0.013002   0.069565  -0.184269  -0.069028  -0.000229
     17       0.000560  -0.000000  -0.000000   0.000003   0.000018   0.000000
     18      -0.000008  -0.015118   0.095577   0.034554   0.099089   0.000070
     19      -0.000002  -0.010738   0.018023  -0.296962  -0.014838  -0.000108
     20      -0.000136  -0.000002   0.000006  -0.000003   0.000006  -0.000000
     21       0.000007   0.016554  -0.121005   0.083327  -0.218168   0.000073
     22       0.000010   0.018913  -0.097892   0.198315  -0.048697  -0.000162
     23       0.000069   0.000002  -0.000009   0.000009  -0.000015  -0.000000
     24       0.488783  -0.337447   0.125091   0.021694  -0.125643   0.095490
     25       0.015953  -0.368184  -0.344184   0.013944   0.136535   0.359773
     26       0.066825  -0.311367  -0.231364   0.002980   0.089703  -0.550950
     27      -0.488656  -0.337501   0.125027   0.021711  -0.125632   0.095413
     28      -0.016076  -0.368196  -0.344189   0.013944   0.136535   0.359758
     29       0.066825   0.311309   0.231372  -0.002978  -0.089713   0.550980
     30      -0.000049   0.012330   0.292988   0.459582  -0.348155   0.008971
     31      -0.000030   0.018224   0.142760   0.108826  -0.305606  -0.014356
     32      -0.022009   0.000001   0.000026   0.000031  -0.000029   0.000000
     33      -0.000037  -0.047122   0.352526   0.413626   0.218564   0.000306
     34       0.000011   0.031699  -0.148881  -0.030210  -0.168794  -0.000043
     35       0.001166  -0.000002   0.000019   0.000032   0.000007   0.000000
     36      -0.000042  -0.066633   0.267224  -0.259538  -0.373411  -0.000275
     37       0.000014   0.022735  -0.052918  -0.033699   0.255392   0.000891
     38      -0.001428  -0.000002   0.000017  -0.000022  -0.000017  -0.000000
     39      -0.000024  -0.165263   0.045374   0.065626  -0.030488  -0.312225
     40      -0.000091   0.509514  -0.145637  -0.123002   0.143376  -0.125413
     41       0.713552   0.000006   0.000022  -0.000005   0.000002  -0.000026
     42      -0.000043  -0.063962   0.383154  -0.319252   0.161937  -0.001081
     43      -0.000022  -0.032880   0.232894  -0.054925   0.214605   0.002119
     44      -0.001215  -0.000007   0.000029  -0.000025   0.000013  -0.000000
     45      -0.000003   0.029491  -0.041998  -0.026020   0.038169   0.003073
     46       0.000002   0.006692   0.017176  -0.034861  -0.004762  -0.002186
     47      -0.010463   0.000002  -0.000003  -0.000002   0.000002   0.000000
                 42         43         44         45         46         47    
      0      -0.000000  -0.000003   0.000033   0.000051   0.000063  -0.000037
      1      -0.000000   0.000004  -0.000001  -0.000000   0.000014   0.000010
      2      -0.000001   0.000000   0.000000   0.000000   0.000000  -0.000000
      3      -0.000005  -0.078303   0.000091   0.001038  -0.000060   0.001063
      4      -0.000001  -0.048904  -0.000071   0.000839  -0.000164   0.001750
      5       0.094977  -0.000004   0.000000   0.000000  -0.000000  -0.000000
      6      -0.000000  -0.001069   0.000751  -0.009941  -0.004226  -0.045073
      7       0.000000   0.001639  -0.001034   0.020324   0.005872   0.070037
      8      -0.000003  -0.000000  -0.000000  -0.000001  -0.000000  -0.000002
      9       0.000000   0.001255  -0.001202  -0.000172   0.002311  -0.001912
     10       0.000000  -0.000533   0.001038   0.000262  -0.002246  -0.002602
     11      -0.000469   0.000000   0.000000   0.000000   0.000000  -0.000000
     12      -0.000000  -0.000314   0.003033  -0.034840  -0.001404   0.012785
     13       0.000000  -0.000604   0.005023  -0.075466  -0.004625   0.022417
     14       0.000070  -0.000000   0.000001  -0.000003  -0.000000   0.000001
     15       0.000000  -0.000066  -0.023083  -0.003890   0.030387  -0.001414
     16       0.000000  -0.000036  -0.051745  -0.007881   0.057990  -0.003941
     17       0.000082   0.000000  -0.000003  -0.000001   0.000003   0.000000
     18       0.000000  -0.000005  -0.001324  -0.002501  -0.001985   0.001338
     19       0.000000   0.000007  -0.001514   0.002112  -0.002313  -0.001213
     20       0.000042   0.000000  -0.000000  -0.000000  -0.000000   0.000000
     21      -0.000000   0.000046  -0.034038   0.000961  -0.034447   0.002313
     22       0.000000  -0.000072   0.054250   0.000492   0.048391  -0.003676
     23       0.000010  -0.000000  -0.000001   0.000000  -0.000001  -0.000000
     24       0.114304   0.022854  -0.000111  -0.001454  -0.000082  -0.004472
     25       0.393621   0.113152   0.000713  -0.003095   0.000229  -0.008575
     26      -0.572063  -0.192035  -0.001092   0.005599  -0.000138   0.013078
     27      -0.114221   0.022822  -0.000113  -0.001453  -0.000081  -0.004470
     28      -0.393604   0.113129   0.000711  -0.003095   0.000233  -0.008572
     29      -0.572096   0.192017   0.001090  -0.005600   0.000142  -0.013076
     30       0.000001   0.014108  -0.008372   0.146371   0.046569   0.518380
     31      -0.000002  -0.018944   0.011890  -0.231433  -0.070581  -0.801229
     32      -0.002123   0.000001   0.000000   0.000006   0.000002   0.000021
     33      -0.000000   0.003382  -0.028922   0.410712   0.022958  -0.121620
     34      -0.000001   0.007414  -0.059740   0.859212   0.049484  -0.248632
     35      -0.000124   0.000000  -0.000004   0.000042   0.000003  -0.000012
     36      -0.000002   0.000617   0.288163   0.044444  -0.324709   0.019390
     37      -0.000004   0.001567   0.595262   0.091485  -0.661617   0.041688
     38       0.000085   0.000000   0.000033   0.000005  -0.000036   0.000002
     39      -0.000022   0.874445   0.000248  -0.010718  -0.001006  -0.011863
     40      -0.000008   0.354678  -0.000079  -0.005168   0.000019  -0.007173
     41       0.021219   0.000067   0.000001  -0.000001  -0.000000  -0.000001
     42       0.000001  -0.000597   0.411238  -0.000515   0.370114  -0.026051
     43      -0.000001   0.000929  -0.617684  -0.000649  -0.549367   0.039160
     44       0.000002   0.000000   0.000015  -0.000000   0.000015  -0.000000
     45      -0.000000  -0.000161  -0.000010  -0.000218  -0.000406   0.000115
     46       0.000000   0.000361  -0.000118  -0.000027   0.000273   0.000393
     47      -0.000212  -0.000000  -0.000000  -0.000000  -0.000000   0.000000


-----------
IR SPECTRUM
-----------

 Mode   freq       eps      Int      T**2         TX        TY        TZ
       cm**-1   L/(mol*cm) km/mol    a.u.
----------------------------------------------------------------------------
  6:     86.61   0.000183    0.92  0.000659  ( 0.000003  0.000005  0.025674)
  7:    140.35   0.000987    4.99  0.002195  (-0.000003 -0.000003  0.046848)
  8:    178.15   0.000331    1.67  0.000580  ( 0.022419  0.008800 -0.000005)
  9:    262.75   0.000676    3.41  0.000803  ( 0.028269 -0.001845 -0.000002)
 10:    302.07   0.000493    2.49  0.000509  ( 0.000002  0.000002 -0.022561)
 11:    319.35   0.000205    1.03  0.000200  ( 0.008950  0.010945 -0.000000)
 12:    374.63   0.000182    0.92  0.000152  ( 0.000001  0.000002 -0.012317)
 13:    429.22   0.000011    0.06  0.000008  ( 0.000001  0.000001 -0.002835)
 14:    485.77   0.000253    1.28  0.000162  (-0.009091 -0.008927  0.000005)
 15:    510.68   0.004772   24.12  0.002916  (-0.000000  0.000003 -0.054001)
 16:    607.71   0.013103   66.22  0.006729  ( 0.080208  0.017180  0.000005)
 17:    636.64   0.000091    0.46  0.000045  (-0.000054 -0.000002  0.006674)
 18:    638.32   0.000882    4.46  0.000431  (-0.020762  0.000045 -0.000019)
 19:    799.78   0.000624    3.15  0.000244  ( 0.007295 -0.013798  0.000004)
 20:    824.41   0.001538    7.77  0.000582  ( 0.000002  0.000000 -0.024125)
 21:    831.25   0.024400  123.31  0.009160  (-0.000004 -0.000002  0.095709)
 22:    923.83   0.000008    0.04  0.000003  ( 0.000002  0.000002 -0.001594)
 23:    933.28   0.000004    0.02  0.000001  ( 0.000001  0.000004 -0.001165)
 24:   1003.27   0.006906   34.90  0.002148  ( 0.045488 -0.008881  0.000003)
 25:   1037.70   0.016273   82.24  0.004894  ( 0.053474 -0.045102  0.000003)
 26:   1065.84   0.004249   21.47  0.001244  ( 0.023289  0.026491  0.000003)
 27:   1126.86   0.004802   24.27  0.001330  ( 0.005580  0.036036 -0.000001)
 28:   1187.17   0.000099    0.50  0.000026  ( 0.000012  0.000001  0.005110)
 29:   1192.34   0.005305   26.81  0.001388  ( 0.037048 -0.003972  0.000001)
 30:   1216.95   0.005979   30.22  0.001533  ( 0.036089 -0.015192  0.000001)
 31:   1267.93   0.053426  270.00  0.013149  ( 0.114351 -0.008552  0.000008)
 32:   1300.76   0.062265  314.66  0.014938  ( 0.120318 -0.021483  0.000009)
 33:   1324.72   0.003068   15.50  0.000723  (-0.025490 -0.008540 -0.000002)
 34:   1414.02   0.000018    0.09  0.000004  (-0.000964  0.001713 -0.000001)
 35:   1477.43   0.020683  104.52  0.004369  (-0.065945 -0.004458 -0.000008)
 36:   1492.52   0.002263   11.44  0.000473  (-0.000016 -0.000002  0.021752)
 37:   1499.66   0.014671   74.14  0.003053  (-0.055249  0.000550 -0.000003)
 38:   1506.42   0.029390  148.53  0.006088  ( 0.078025  0.000674  0.000006)
 39:   1557.57   0.004047   20.45  0.000811  ( 0.025215  0.013229  0.000002)
 40:   1588.25   0.019727   99.69  0.003876  (-0.062098  0.004460 -0.000004)
 41:   2909.81   0.016828   85.04  0.001805  ( 0.031098 -0.028941  0.000001)
 42:   2972.04   0.012043   60.86  0.001265  (-0.000002  0.000001  0.035560)
 43:   3025.68   0.006236   31.52  0.000643  (-0.022628 -0.011453 -0.000000)
 44:   3073.28   0.001038    5.25  0.000105  (-0.010264 -0.000224 -0.000002)
 45:   3077.55   0.001355    6.85  0.000137  (-0.008361 -0.008218 -0.000001)
 46:   3086.10   0.002477   12.52  0.000250  ( 0.003936  0.015329  0.000001)
 47:   3100.16   0.001632    8.25  0.000164  (-0.009476  0.008628 -0.000000)

* The epsilon (eps) is given for a Dirac delta lineshape.
** The dipole moment derivative (T) already includes vibrational overlap.

The first frequency considered to be a vibration is 6
The total number of vibrations considered is 42


--------------------------
THERMOCHEMISTRY AT 298.15K
--------------------------

Temperature         ... 298.15 K
Pressure            ... 1.00 atm
Total Mass          ... 187.03 AMU

Throughout the following assumptions are being made:
  (1) The electronic state is orbitally nondegenerate
  (2) There are no thermally accessible electronically excited states
  (3) Hindered rotations indicated by low frequency modes are not
      treated as such but are treated as vibrations and this may
      cause some error
  (4) All equations used are the standard statistical mechanics
      equations for an ideal gas
  (5) All vibrations are strictly harmonic

freq.      86.61  E(vib)   ...       0.48 
freq.     140.35  E(vib)   ...       0.41 
freq.     178.15  E(vib)   ...       0.37 
freq.     262.75  E(vib)   ...       0.29 
freq.     302.07  E(vib)   ...       0.26 
freq.     319.35  E(vib)   ...       0.25 
freq.     374.63  E(vib)   ...       0.21 
freq.     429.22  E(vib)   ...       0.18 
freq.     485.77  E(vib)   ...       0.15 
freq.     510.68  E(vib)   ...       0.14 
freq.     607.71  E(vib)   ...       0.10 
freq.     636.64  E(vib)   ...       0.09 
freq.     638.32  E(vib)   ...       0.09 
freq.     799.78  E(vib)   ...       0.05 
freq.     824.41  E(vib)   ...       0.04 
freq.     831.25  E(vib)   ...       0.04 
freq.     923.83  E(vib)   ...       0.03 
freq.     933.28  E(vib)   ...       0.03 
freq.    1003.27  E(vib)   ...       0.02 
freq.    1037.70  E(vib)   ...       0.02 
freq.    1065.84  E(vib)   ...       0.02 
freq.    1126.86  E(vib)   ...       0.01 
freq.    1187.17  E(vib)   ...       0.01 
freq.    1192.34  E(vib)   ...       0.01 
freq.    1216.95  E(vib)   ...       0.01 
freq.    1267.93  E(vib)   ...       0.01 
freq.    1300.76  E(vib)   ...       0.01 
freq.    1324.72  E(vib)   ...       0.01 
freq.    1414.02  E(vib)   ...       0.00 
freq.    1477.43  E(vib)   ...       0.00 
freq.    1492.52  E(vib)   ...       0.00 
freq.    1499.66  E(vib)   ...       0.00 
freq.    1506.42  E(vib)   ...       0.00 
freq.    1557.57  E(vib)   ...       0.00 
freq.    1588.25  E(vib)   ...       0.00 
freq.    2909.81  E(vib)   ...       0.00 
freq.    2972.04  E(vib)   ...       0.00 
freq.    3025.68  E(vib)   ...       0.00 
freq.    3073.28  E(vib)   ...       0.00 
freq.    3077.55  E(vib)   ...       0.00 
freq.    3086.10  E(vib)   ...       0.00 
freq.    3100.16  E(vib)   ...       0.00 

------------
INNER ENERGY
------------

The inner energy is: U= E(el) + E(ZPE) + E(vib) + E(rot) + E(trans)
    E(el)   - is the total energy from the electronic structure calculation
              = E(kin-el) + E(nuc-el) + E(el-el) + E(nuc-nuc)
    E(ZPE)  - the the zero temperature vibrational energy from the frequency calculation
    E(vib)  - the the finite temperature correction to E(ZPE) due to population
              of excited vibrational states
    E(rot)  - is the rotational thermal energy
    E(trans)- is the translational thermal energy

Summary of contributions to the inner energy U:
Electronic energy                ...  -2921.09863506 Eh
Zero point energy                ...      0.12026168 Eh      75.47 kcal/mol
Thermal vibrational correction   ...      0.00535974 Eh       3.36 kcal/mol
Thermal rotational correction    ...      0.00141627 Eh       0.89 kcal/mol
Thermal translational correction ...      0.00141627 Eh       0.89 kcal/mol
-----------------------------------------------------------------------
Total thermal energy                  -2920.97018110 Eh


Summary of corrections to the electronic energy:
(perhaps to be used in another calculation)
Total thermal correction                  0.00819228 Eh       5.14 kcal/mol
Non-thermal (ZPE) correction              0.12026168 Eh      75.47 kcal/mol
-----------------------------------------------------------------------
Total correction                          0.12845396 Eh      80.61 kcal/mol


--------
ENTHALPY
--------

The enthalpy is H = U + kB*T
                kB is Boltzmann's constant
Total free energy                 ...  -2920.97018110 Eh 
Thermal Enthalpy correction       ...      0.00094421 Eh       0.59 kcal/mol
-----------------------------------------------------------------------
Total Enthalpy                    ...  -2920.96923689 Eh


Note: Rotational entropy computed according to Herzberg 
Infrared and Raman Spectra, Chapter V,1, Van Nostrand Reinhold, 1945 
Point Group:  Cs, Symmetry Number:   1  
Rotational constants in cm-1:     0.159598     0.015085     0.013819 

Vibrational entropy computed according to the QRRHO of S. Grimme
Chem.Eur.J. 2012 18 9955


-------
ENTROPY
-------

The entropy contributions are T*S = T*(S(el)+S(vib)+S(rot)+S(trans))
     S(el)   - electronic entropy
     S(vib)  - vibrational entropy
     S(rot)  - rotational entropy
     S(trans)- translational entropy
The entropies will be listed as multiplied by the temperature to get
units of energy

Electronic entropy                ...      0.00000000 Eh      0.00 kcal/mol
Vibrational entropy               ...      0.00884411 Eh      5.55 kcal/mol
Rotational entropy                ...      0.01437847 Eh      9.02 kcal/mol
Translational entropy             ...      0.01975798 Eh     12.40 kcal/mol
-----------------------------------------------------------------------
Final entropy term                ...      0.04298056 Eh     26.97 kcal/mol

In case the symmetry of your molecule has not been determined correctly
or in case you have a reason to use a different symmetry number we print 
out the resulting rotational entropy values for sn=1,12 :
 --------------------------------------------------------
|  sn= 1 | S(rot)=       0.01437847 Eh      9.02 kcal/mol|
|  sn= 2 | S(rot)=       0.01372402 Eh      8.61 kcal/mol|
|  sn= 3 | S(rot)=       0.01334119 Eh      8.37 kcal/mol|
|  sn= 4 | S(rot)=       0.01306956 Eh      8.20 kcal/mol|
|  sn= 5 | S(rot)=       0.01285887 Eh      8.07 kcal/mol|
|  sn= 6 | S(rot)=       0.01268673 Eh      7.96 kcal/mol|
|  sn= 7 | S(rot)=       0.01254118 Eh      7.87 kcal/mol|
|  sn= 8 | S(rot)=       0.01241511 Eh      7.79 kcal/mol|
|  sn= 9 | S(rot)=       0.01230390 Eh      7.72 kcal/mol|
|  sn=10 | S(rot)=       0.01220442 Eh      7.66 kcal/mol|
|  sn=11 | S(rot)=       0.01211443 Eh      7.60 kcal/mol|
|  sn=12 | S(rot)=       0.01203227 Eh      7.55 kcal/mol|
 --------------------------------------------------------


-------------------
GIBBS FREE ENERGY
-------------------

The Gibbs free energy is G = H - T*S

Total enthalpy                    ...  -2920.96923689 Eh 
Total entropy correction          ...     -0.04298056 Eh    -26.97 kcal/mol
-----------------------------------------------------------------------
Final Gibbs free energy         ...  -2921.01221745 Eh

For completeness - the Gibbs free energy minus the electronic energy
G-E(el)                           ...      0.08641760 Eh     54.23 kcal/mol



Timings for individual modules:

Sum of individual times         ...       87.496 sec (=   1.458 min)
GTO integral calculation        ...        2.383 sec (=   0.040 min)   2.7 %
SCF iterations                  ...       16.027 sec (=   0.267 min)  18.3 %
SCF Gradient evaluation         ...        2.036 sec (=   0.034 min)   2.3 %
Numerical frequency calculation ...       67.051 sec (=   1.118 min)  76.6 %
                             ****ORCA TERMINATED NORMALLY****
TOTAL RUN TIME: 0 days 0 hours 1 minutes 22 seconds 120 msec
