
                                 *****************
                                 * O   R   C   A *
                                 *****************

                                            #,                                       
                                            ###                                      
                                            ####                                     
                                            #####                                    
                                            ######                                   
                                           ########,                                 
                                     ,,################,,,,,                         
                               ,,#################################,,                 
                          ,,##########################################,,             
                       ,#########################################, ''#####,          
                    ,#############################################,,   '####,        
                  ,##################################################,,,,####,       
                ,###########''''           ''''###############################       
              ,#####''   ,,,,##########,,,,          '''####'''          '####       
            ,##' ,,,,###########################,,,                        '##       
           ' ,,###''''                  '''############,,,                           
         ,,##''                                '''############,,,,        ,,,,,,###''
      ,#''                                            '''#######################'''  
     '                                                          ''''####''''         
             ,#######,   #######,   ,#######,      ##                                
            ,#'     '#,  ##    ##  ,#'     '#,    #''#        ######   ,####,        
            ##       ##  ##   ,#'  ##            #'  '#       #        #'  '#        
            ##       ##  #######   ##           ,######,      #####,   #    #        
            '#,     ,#'  ##    ##  '#,     ,#' ,#      #,         ##   #,  ,#        
             '#######'   ##     ##  '#######'  #'      '#     #####' # '####'        



                  #######################################################
                  #                        -***-                        #
                  #          Department of theory and spectroscopy      #
                  #    Directorship and core code : Frank Neese         #
                  #        Max Planck Institute fuer Kohlenforschung    #
                  #                Kaiser Wilhelm Platz 1               #
                  #                 D-45470 Muelheim/Ruhr               #
                  #                      Germany                        #
                  #                                                     #
                  #                  All rights reserved                #
                  #                        -***-                        #
                  #######################################################


                         Program Version 5.0.1 -  RELEASE  -


 With contributions from (in alphabetic order):
   Daniel Aravena         : Magnetic Suceptibility
   Michael Atanasov       : Ab Initio Ligand Field Theory (pilot matlab implementation)
   Alexander A. Auer      : GIAO ZORA, VPT2 properties, NMR spectrum
   Ute Becker             : Parallelization
   Giovanni Bistoni       : ED, misc. LED, open-shell LED, HFLD
   Martin Brehm           : Molecular dynamics
   Dmytro Bykov           : SCF Hessian
   Vijay G. Chilkuri      : MRCI spin determinant printing, contributions to CSF-ICE
   Dipayan Datta          : RHF DLPNO-CCSD density
   Achintya Kumar Dutta   : EOM-CC, STEOM-CC
   Dmitry Ganyushin       : Spin-Orbit,Spin-Spin,Magnetic field MRCI
   Miquel Garcia          : C-PCM and meta-GGA Hessian, CC/C-PCM, Gaussian charge scheme
   Yang Guo               : DLPNO-NEVPT2, F12-NEVPT2, CIM, IAO-localization
   Andreas Hansen         : Spin unrestricted coupled pair/coupled cluster methods
   Benjamin Helmich-Paris : MC-RPA, TRAH-SCF, COSX integrals
   Lee Huntington         : MR-EOM, pCC
   Robert Izsak           : Overlap fitted RIJCOSX, COSX-SCS-MP3, EOM
   Marcus Kettner         : VPT2
   Christian Kollmar      : KDIIS, OOCD, Brueckner-CCSD(T), CCSD density, CASPT2, CASPT2-K
   Simone Kossmann        : Meta GGA functionals, TD-DFT gradient, OOMP2, MP2 Hessian
   Martin Krupicka        : Initial AUTO-CI
   Lucas Lang             : DCDCAS
   Marvin Lechner         : AUTO-CI (C++ implementation), FIC-MRCC
   Dagmar Lenk            : GEPOL surface, SMD
   Dimitrios Liakos       : Extrapolation schemes; Compound Job, initial MDCI parallelization
   Dimitrios Manganas     : Further ROCIS development; embedding schemes
   Dimitrios Pantazis     : SARC Basis sets
   Anastasios Papadopoulos: AUTO-CI, single reference methods and gradients
   Taras Petrenko         : DFT Hessian,TD-DFT gradient, ASA, ECA, R-Raman, ABS, FL, XAS/XES, NRVS
   Peter Pinski           : DLPNO-MP2, DLPNO-MP2 Gradient
   Christoph Reimann      : Effective Core Potentials
   Marius Retegan         : Local ZFS, SOC
   Christoph Riplinger    : Optimizer, TS searches, QM/MM, DLPNO-CCSD(T), (RO)-DLPNO pert. Triples
   Tobias Risthaus        : Range-separated hybrids, TD-DFT gradient, RPA, STAB
   Michael Roemelt        : Original ROCIS implementation
   Masaaki Saitow         : Open-shell DLPNO-CCSD energy and density
   Barbara Sandhoefer     : DKH picture change effects
   Avijit Sen             : IP-ROCIS
   Kantharuban Sivalingam : CASSCF convergence, NEVPT2, FIC-MRCI
   Bernardo de Souza      : ESD, SOC TD-DFT
   Georgi Stoychev        : AutoAux, RI-MP2 NMR, DLPNO-MP2 response
   Willem Van den Heuvel  : Paramagnetic NMR
   Boris Wezisla          : Elementary symmetry handling
   Frank Wennmohs         : Technical directorship


 We gratefully acknowledge several colleagues who have allowed us to
 interface, adapt or use parts of their codes:
   Stefan Grimme, W. Hujo, H. Kruse, P. Pracht,  : VdW corrections, initial TS optimization,
                  C. Bannwarth, S. Ehlert          DFT functionals, gCP, sTDA/sTD-DF
   Ed Valeev, F. Pavosevic, A. Kumar             : LibInt (2-el integral package), F12 methods
   Garnet Chan, S. Sharma, J. Yang, R. Olivares  : DMRG
   Ulf Ekstrom                                   : XCFun DFT Library
   Mihaly Kallay                                 : mrcc  (arbitrary order and MRCC methods)
   Jiri Pittner, Ondrej Demel                    : Mk-CCSD
   Frank Weinhold                                : gennbo (NPA and NBO analysis)
   Christopher J. Cramer and Donald G. Truhlar   : smd solvation model
   Lars Goerigk                                  : TD-DFT with DH, B97 family of functionals
   V. Asgeirsson, H. Jonsson                     : NEB implementation
   FAccTs GmbH                                   : IRC, NEB, NEB-TS, DLPNO-Multilevel, CI-OPT
                                                   MM, QMMM, 2- and 3-layer-ONIOM, Crystal-QMMM,
                                                   LR-CPCM, SF, NACMEs, symmetry and pop. for TD-DFT,
                                                   nearIR, NL-DFT gradient (VV10), updates on ESD,
                                                   ML-optimized integration grids
   S Lehtola, MJT Oliveira, MAL Marques          : LibXC Library
   Liviu Ungur et al                             : ANISO software


 Your calculation uses the libint2 library for the computation of 2-el integrals
 For citations please refer to: http://libint.valeyev.net

 Your ORCA version has been built with support for libXC version: 5.1.0
 For citations please refer to: https://tddft.org/programs/libxc/

 This ORCA versions uses:
   CBLAS   interface :  Fast vector & matrix operations
   LAPACKE interface :  Fast linear algebra routines
   SCALAPACK package :  Parallel linear algebra routines
   Shared memory     :  Shared parallel matrices
   BLAS/LAPACK       :  OpenBLAS 0.3.15  USE64BITINT DYNAMIC_ARCH NO_AFFINITY Zen SINGLE_THREADED
        Core in use  :  Zen
   Copyright (c) 2011-2014, The OpenBLAS Project


Your calculation utilizes the atom-pairwise dispersion correction
with the Becke-Johnson damping scheme (D3BJ)
Cite in your paper:
S.Grimme, S.Ehrlich, L.Goerigk, J Comput Chem, (2011), 32, 1456–1465 
S.Grimme, J.Antony, S.Ehrlich and H.Krieg, J.Chem.Phys., 132, (2010), 154104 
   

Your calculation employs the composite approach B97-3c by Grimme and coworkers.
For the correct reference, please check the publication list of the Grimme group:
http://www.thch.uni-bonn.de/tc/index.php?section=publikationen&subsection=grimme#2017
   

XCFun DFT library Copyright 2009-2010 Ulf Ekstrom and contributors.
See http://admol.org/xcfun for more information.
This is free software; see the source code for copying conditions.
There is ABSOLUTELY NO WARRANTY; not even for MERCHANTABILITY or FITNESS FOR A PARTICULAR PURPOSE.
For details see the documentation.
Scientific users of this library should cite U. Ekstrom, L. Visscher, R. Bast, A. J. Thorvaldsen and K. Ruud;
J.Chem.Theor.Comp. 2010, DOI: 10.1021/ct100117s
XCFun Version 0.99 

================================================================================

----- Orbital basis set information -----
Your calculation utilizes the basis: def2-SVP
   F. Weigend and R. Ahlrichs, Phys. Chem. Chem. Phys. 7, 3297 (2005).

The basis set includes atom-specific modifications.

Your calculation utilizes the basis: def2-TZVP
   F. Weigend and R. Ahlrichs, Phys. Chem. Chem. Phys. 7, 3297 (2005).

Your calculation utilizes the basis: STO-3G
   H-Ne       : W. J. Hehre, R. F. Stewart and J. A. Pople, J. Chem. Phys. 2657 (1969).
   Na-Ar      : W. J. Hehre, R. Ditchfield, R. F. Stewart and J. A. Pople, J. Chem. Phys. 2769 (1970).
   K,Ca,Ga-Kr : W. J. Pietro, B. A. Levy, W. J. Hehre and R. F. Stewart, J. Am. Chem. Soc. 19, 2225 (1980).
   Sc-Zn,Y-Cd : W. J. Pietro and W. J. Hehre, J. Comp. Chem. 4, 241 (1983).

----- AuxJ basis set information -----
Your calculation utilizes the basis: def2-mTZVP/J
================================================================================
                                        WARNINGS
                       Please study these warnings very carefully!
================================================================================


WARNING: Geometry Optimization
  ===> : Switching off AutoStart
         For restart on a previous wavefunction, please use MOREAD

INFO   : the flag for use of the SHARK integral package has been found!

================================================================================
                                       INPUT FILE
================================================================================
NAME = /scratch/negishi/li1724/Test-CentralizedCode-4-5/DFT/QJPJQTDYNZXKQF-UHFFFAOYSA-N/QJPJQTDYNZXKQF-UHFFFAOYSA-N-OPT.in
|  1> ! B97-3c def2-SVP CPCM(DMSO) defgrid2 OPT Freq
|  2> 
|  3> %scf
|  4>   MaxIter 500
|  5> end
|  6> 
|  7> %pal
|  8>   nproc 48
|  9> end
| 10> 
| 11> %maxcore 4800
| 12> 
| 13> %base "QJPJQTDYNZXKQF-UHFFFAOYSA-N-OPT"
| 14> 
| 15> *xyz 0 1
| 16> Br  -2.40152628  -0.08294166   0.00008267 newgto "def2-TZVP" end
| 17> C    4.45972054  -0.68221602   0.00017409 
| 18> C    1.64395941  -1.01397110  -0.00007776 
| 19> C    2.26272927   0.23282167   0.00000681 
| 20> C    0.26216039  -1.10365231  -0.00021888 
| 21> C    1.47336240   1.38643343   0.00001531 
| 22> C   -0.50009530   0.04819752  -0.00036492 
| 23> C    0.09864548   1.29853937  -0.00016310 
| 24> H    4.31651284  -1.29723554   0.89419371 newgto "STO-3G" end
| 25> H    4.31653607  -1.29750167  -0.89360275 newgto "STO-3G" end
| 26> H    2.22156221  -1.92437295  -0.00014911 newgto "STO-3G" end
| 27> H   -0.21485544  -2.07173567  -0.00036275 newgto "STO-3G" end
| 28> H    1.96607863   2.34535439   0.00006601 newgto "STO-3G" end
| 29> H    5.47057148  -0.27820090   0.00026335 newgto "STO-3G" end
| 30> H   -0.50640306   2.19187533  -0.00012456 newgto "STO-3G" end
| 31> O    3.60452635   0.43638827   0.00004104 
| 32> *
| 33> 
| 34>                          ****END OF INPUT****
================================================================================

                       *****************************
                       * Geometry Optimization Run *
                       *****************************

Geometry optimization settings:
Update method            Update   .... BFGS
Choice of coordinates    CoordSys .... Z-matrix Internals
Initial Hessian          InHess   .... Almoef's Model

Convergence Tolerances:
Energy Change            TolE     ....  5.0000e-06 Eh
Max. Gradient            TolMAXG  ....  3.0000e-04 Eh/bohr
RMS Gradient             TolRMSG  ....  1.0000e-04 Eh/bohr
Max. Displacement        TolMAXD  ....  4.0000e-03 bohr
RMS Displacement         TolRMSD  ....  2.0000e-03 bohr
Strict Convergence                ....  False
------------------------------------------------------------------------------
                        ORCA OPTIMIZATION COORDINATE SETUP
------------------------------------------------------------------------------

The optimization will be done in new redundant internal coordinates
Making redundant internal coordinates   ...  (new redundants) done
Evaluating the initial hessian          ...  (Almloef) done
Evaluating the coordinates              ...  done
Calculating the B-matrix                .... done
Calculating the G-matrix                .... done
Diagonalizing the G-matrix              .... done
Small eigenvalue found = 2.085e-02
The first mode is                       ....   28
The number of degrees of freedom        ....   42

    -----------------------------------------------------------------
                    Redundant Internal Coordinates


    -----------------------------------------------------------------
         Definition                    Initial Value    Approx d2E/dq
    -----------------------------------------------------------------
      1. B(C   3,C   2)                  1.3919         0.620465   
      2. B(C   4,C   2)                  1.3847         0.637066   
      3. B(C   5,C   3)                  1.3978         0.607087   
      4. B(C   6,Br  0)                  1.9059         0.315552   
      5. B(C   6,C   4)                  1.3812         0.645258   
      6. B(C   7,C   6)                  1.3863         0.633332   
      7. B(C   7,C   5)                  1.3775         0.654099   
      8. B(H   8,C   1)                  1.0945         0.354138   
      9. B(H   9,C   1)                  1.0945         0.354205   
     10. B(H  10,C   2)                  1.0782         0.376091   
     11. B(H  11,C   4)                  1.0792         0.374638   
     12. B(H  12,C   5)                  1.0781         0.376192   
     13. B(H  13,C   1)                  1.0886         0.361958   
     14. B(H  14,C   7)                  1.0789         0.375019   
     15. B(O  15,C   1)                  1.4081         0.523675   
     16. B(O  15,C   3)                  1.3572         0.631370   
     17. A(H   8,C   1,H  13)          109.2666         0.290312   
     18. A(H   9,C   1,O  15)          111.5349         0.339984   
     19. A(H   9,C   1,H  13)          109.2800         0.290321   
     20. A(H  13,C   1,O  15)          105.6131         0.341217   
     21. A(H   8,C   1,O  15)          111.5306         0.339973   
     22. A(H   8,C   1,H   9)          109.5124         0.289328   
     23. A(C   3,C   2,H  10)          121.2123         0.355562   
     24. A(C   3,C   2,C   4)          120.1081         0.436252   
     25. A(C   4,C   2,H  10)          118.6796         0.357160   
     26. A(C   2,C   3,O  15)          125.0214         0.432695   
     27. A(C   2,C   3,C   5)          119.2231         0.432484   
     28. A(C   5,C   3,O  15)          115.7555         0.431004   
     29. A(C   6,C   4,H  11)          120.2733         0.357701   
     30. A(C   2,C   4,H  11)          119.9448         0.356925   
     31. A(C   2,C   4,C   6)          119.7819         0.439345   
     32. A(C   7,C   5,H  12)          120.8535         0.358783   
     33. A(C   3,C   5,H  12)          118.4227         0.354267   
     34. A(C   3,C   5,C   7)          120.7239         0.436613   
     35. A(C   4,C   6,C   7)          120.9168         0.438880   
     36. A(Br  0,C   6,C   7)          119.5333         0.411863   
     37. A(Br  0,C   6,C   4)          119.5499         0.413229   
     38. A(C   6,C   7,H  14)          120.3026         0.356631   
     39. A(C   5,C   7,H  14)          120.4511         0.358592   
     40. A(C   5,C   7,C   6)          119.2463         0.439959   
     41. A(C   1,O  15,C   3)          118.7719         0.417031   
     42. D(O  15,C   3,C   2,C   4)   -179.9946         0.026642   
     43. D(C   5,C   3,C   2,C   4)      0.0032         0.026642   
     44. D(C   5,C   3,C   2,H  10)    179.9961         0.026642   
     45. D(O  15,C   3,C   2,H  10)     -0.0016         0.026642   
     46. D(C   6,C   4,C   2,C   3)      0.0043         0.028181   
     47. D(C   6,C   4,C   2,H  10)   -179.9888         0.028181   
     48. D(H  11,C   4,C   2,H  10)      0.0021         0.028181   
     49. D(H  11,C   4,C   2,C   3)    179.9952         0.028181   
     50. D(H  12,C   5,C   3,O  15)     -0.0011         0.025440   
     51. D(H  12,C   5,C   3,C   2)   -179.9991         0.025440   
     52. D(C   7,C   5,C   3,O  15)    179.9929         0.025440   
     53. D(C   7,C   5,C   3,C   2)     -0.0050         0.025440   
     54. D(C   7,C   6,C   4,C   2)     -0.0101         0.028960   
     55. D(Br  0,C   6,C   4,H  11)      0.0313         0.028960   
     56. D(Br  0,C   6,C   4,C   2)   -179.9778         0.028960   
     57. D(C   7,C   6,C   4,H  11)    179.9990         0.028960   
     58. D(H  14,C   7,C   6,C   4)   -179.9904         0.027830   
     59. D(C   5,C   7,C   6,C   4)      0.0082         0.027830   
     60. D(C   5,C   7,C   6,Br  0)    179.9760         0.027830   
     61. D(H  14,C   7,C   5,H  12)     -0.0080         0.029816   
     62. D(H  14,C   7,C   5,C   3)    179.9981         0.029816   
     63. D(H  14,C   7,C   6,Br  0)     -0.0227         0.027830   
     64. D(C   6,C   7,C   5,H  12)    179.9933         0.029816   
     65. D(C   6,C   7,C   5,C   3)     -0.0006         0.029816   
     66. D(C   1,O  15,C   3,C   5)    179.9935         0.029325   
     67. D(C   1,O  15,C   3,C   2)     -0.0086         0.029325   
     68. D(C   3,O  15,C   1,H  13)   -179.9953         0.021755   
     69. D(C   3,O  15,C   1,H   9)     61.3952         0.021755   
     70. D(C   3,O  15,C   1,H   8)    -61.4041         0.021755   
    -----------------------------------------------------------------

Number of atoms                         .... 16
Number of degrees of freedom            .... 70

         *************************************************************
         *                GEOMETRY OPTIMIZATION CYCLE   1            *
         *************************************************************
---------------------------------
CARTESIAN COORDINATES (ANGSTROEM)
---------------------------------
  Br    -2.401526   -0.082942    0.000083
  C      4.459721   -0.682216    0.000174
  C      1.643959   -1.013971   -0.000078
  C      2.262729    0.232822    0.000007
  C      0.262160   -1.103652   -0.000219
  C      1.473362    1.386433    0.000015
  C     -0.500095    0.048198   -0.000365
  C      0.098645    1.298539   -0.000163
  H      4.316513   -1.297236    0.894194
  H      4.316536   -1.297502   -0.893603
  H      2.221562   -1.924373   -0.000149
  H     -0.214855   -2.071736   -0.000363
  H      1.966079    2.345354    0.000066
  H      5.470571   -0.278201    0.000263
  H     -0.506403    2.191875   -0.000125
  O      3.604526    0.436388    0.000041

----------------------------
CARTESIAN COORDINATES (A.U.)
----------------------------
  NO LB      ZA    FRAG     MASS         X           Y           Z
   0 Br   35.0000    0    79.900   -4.538227   -0.156737    0.000156
   1 C     6.0000    0    12.011    8.427650   -1.289201    0.000329
   2 C     6.0000    0    12.011    3.106633   -1.916128   -0.000147
   3 C     6.0000    0    12.011    4.275939    0.439969    0.000013
   4 C     6.0000    0    12.011    0.495411   -2.085601   -0.000414
   5 C     6.0000    0    12.011    2.784251    2.619979    0.000029
   6 C     6.0000    0    12.011   -0.945043    0.091080   -0.000690
   7 C     6.0000    0    12.011    0.186413    2.453884   -0.000308
   8 H     1.0000    0     1.008    8.157027   -2.451420    1.689781
   9 H     1.0000    0     1.008    8.157071   -2.451923   -1.688664
  10 H     1.0000    0     1.008    4.198144   -3.636538   -0.000282
  11 H     1.0000    0     1.008   -0.406018   -3.915013   -0.000685
  12 H     1.0000    0     1.008    3.715350    4.432077    0.000125
  13 H     1.0000    0     1.008   10.337882   -0.525724    0.000498
  14 H     1.0000    0     1.008   -0.956963    4.142044   -0.000235
  15 O     8.0000    0    15.999    6.811568    0.824654    0.000078

--------------------------------
INTERNAL COORDINATES (ANGSTROEM)
--------------------------------
 Br     0   0   0     0.000000000000     0.00000000     0.00000000
 C      1   0   0     6.887367979996     0.00000000     0.00000000
 C      2   1   0     2.835237598113    11.71130820     0.00000000
 C      3   2   1     1.391893802745    56.88563648     0.00000000
 C      3   2   4     1.384706203862   176.99373734     0.00000000
 C      4   3   2     1.397826937906   119.22313235   180.00225757
 C      5   3   4     1.381228362414   119.78186880     0.00000000
 C      6   4   3     1.377523868304   120.72386608     0.00000000
 H      2   1   7     1.094544899155    85.32867310   125.05477128
 H      2   1   7     1.094493153595    85.32963709   235.10942387
 H      3   2  10     1.078172772863    64.32664269    56.37140362
 H      5   3  11     1.079226350067   119.94481805     0.00000000
 H      6   4   3     1.078099574902   118.42267431   180.00091881
 H      2   1   7     1.088599029971   153.22282986     0.10037011
 H      8   6   4     1.078949894421   120.45114682   179.99807888
 O      4   3   2     1.357150973806   125.02137942     0.00000000

---------------------------
INTERNAL COORDINATES (A.U.)
---------------------------
 Br     0   0   0     0.000000000000     0.00000000     0.00000000
 C      1   0   0    13.015239265730     0.00000000     0.00000000
 C      2   1   0     5.357822585030    11.71130820     0.00000000
 C      3   2   1     2.630298094691    56.88563648     0.00000000
 C      3   2   4     2.616715501242   176.99373734     0.00000000
 C      4   3   2     2.641510095260   119.22313235   180.00225757
 C      5   3   4     2.610143333366   119.78186880     0.00000000
 C      6   4   3     2.603142854035   120.72386608     0.00000000
 H      2   1   7     2.068390100683    85.32867310   125.05477128
 H      2   1   7     2.068292315746    85.32963709   235.10942387
 H      3   2  10     2.037451265761    64.32664269    56.37140362
 H      5   3  11     2.039442238137   119.94481805     0.00000000
 H      6   4   3     2.037312941661   118.42267431   180.00091881
 H      2   1   7     2.057154036298   153.22282986     0.10037011
 H      8   6   4     2.038919812678   120.45114682   179.99807888
 O      4   3   2     2.564643662879   125.02137942     0.00000000

---------------------
BASIS SET INFORMATION
---------------------
There are 4 groups of distinct atoms

 Group   1 Type Br  : 17s13p8d1f contracted to 6s5p4d1f pattern {842111/64111/5111/1}
 Group   2 Type C   : 7s4p1d contracted to 3s2p1d pattern {511/31/1}
 Group   3 Type H   : 3s contracted to 1s pattern {3}
 Group   4 Type O   : 7s4p1d contracted to 3s2p1d pattern {511/31/1}

Atom   0Br   basis set group =>   1
Atom   1C    basis set group =>   2
Atom   2C    basis set group =>   2
Atom   3C    basis set group =>   2
Atom   4C    basis set group =>   2
Atom   5C    basis set group =>   2
Atom   6C    basis set group =>   2
Atom   7C    basis set group =>   2
Atom   8H    basis set group =>   3
Atom   9H    basis set group =>   3
Atom  10H    basis set group =>   3
Atom  11H    basis set group =>   3
Atom  12H    basis set group =>   3
Atom  13H    basis set group =>   3
Atom  14H    basis set group =>   3
Atom  15O    basis set group =>   4
---------------------------------
AUXILIARY/J BASIS SET INFORMATION
---------------------------------
There are 4 groups of distinct atoms

 Group   1 Type Br  : 19s5p5d3f1g contracted to 8s4p3d2f1g pattern {121111111/2111/311/21/1}
 Group   2 Type C   : 8s3p3d contracted to 6s3p3d pattern {311111/111/111}
 Group   3 Type H   : 5s2p contracted to 3s1p pattern {311/2}
 Group   4 Type O   : 8s3p3d contracted to 6s3p3d pattern {311111/111/111}

Atom   0Br   basis set group =>   1
Atom   1C    basis set group =>   2
Atom   2C    basis set group =>   2
Atom   3C    basis set group =>   2
Atom   4C    basis set group =>   2
Atom   5C    basis set group =>   2
Atom   6C    basis set group =>   2
Atom   7C    basis set group =>   2
Atom   8H    basis set group =>   3
Atom   9H    basis set group =>   3
Atom  10H    basis set group =>   3
Atom  11H    basis set group =>   3
Atom  12H    basis set group =>   3
Atom  13H    basis set group =>   3
Atom  14H    basis set group =>   3
Atom  15O    basis set group =>   4


           ************************************************************
           *        Program running with 48 parallel MPI-processes    *
           *              working on a common directory               *
           ************************************************************
------------------------------------------------------------------------------
                           ORCA GTO INTEGRAL CALCULATION
                           -- RI-GTO INTEGRALS CHOSEN --
------------------------------------------------------------------------------
------------------------------------------------------------------------------
                   ___                                                        
                  /   \      - P O W E R E D   B Y -                         
                 /     \                                                     
                 |  |  |   _    _      __       _____    __    __             
                 |  |  |  | |  | |    /  \     |  _  \  |  |  /  |          
                  \  \/   | |  | |   /    \    | | | |  |  | /  /          
                 / \  \   | |__| |  /  /\  \   | |_| |  |  |/  /          
                |  |  |   |  __  | /  /__\  \  |    /   |      \           
                |  |  |   | |  | | |   __   |  |    \   |  |\   \          
                \     /   | |  | | |  |  |  |  | |\  \  |  | \   \       
                 \___/    |_|  |_| |__|  |__|  |_| \__\ |__|  \__/        
                                                                              
                      - O R C A' S   B I G   F R I E N D -                    
                                      &                                       
                       - I N T E G R A L  F E E D E R -                       
                                                                              
 v1 FN, 2020, v2 2021                                                         
------------------------------------------------------------------------------


Reading SHARK input file QJPJQTDYNZXKQF-UHFFFAOYSA-N-OPT.SHARKINP.tmp ... ok
----------------------
SHARK INTEGRAL PACKAGE
----------------------

Number of atoms                             ...     16
Number of basis functions                   ...    167
Number of shells                            ...     71
Maximum angular momentum                    ...      3
Integral batch strategy                     ... SHARK/LIBINT Hybrid
RI-J (if used) integral strategy            ... SPLIT-RIJ (Revised 2003 algorithm where possible)
Printlevel                                  ...      1
Contraction scheme used                     ... SEGMENTED contraction
Coulomb Range Separation                    ... NOT USED
Exchange Range Separation                   ... NOT USED
Finite Nucleus Model                        ... NOT USED
Auxiliary Coulomb fitting basis             ... AVAILABLE
   # of basis functions in Aux-J            ...    340
   # of shells in Aux-J                     ...    142
   Maximum angular momentum in Aux-J        ...      4
Auxiliary J/K fitting basis                 ... NOT available
Auxiliary Correlation fitting basis         ... NOT available
Auxiliary 'external' fitting basis          ... NOT available
Integral threshold                          ...     2.500000e-11
Primitive cut-off                           ...     2.500000e-12
Primitive pair pre-selection threshold      ...     2.500000e-12

Calculating pre-screening integrals         ... done (  0.1 sec) Dimension = 71
Organizing shell pair data                  ... done (  0.0 sec)
Shell pair information
Total number of shell pairs                 ...      2556
Shell pairs after pre-screening             ...      2268
Total number of primitive shell pairs       ...     12437
Primitive shell pairs kept                  ...      7652
          la=0 lb=0:    610 shell pairs
          la=1 lb=0:    704 shell pairs
          la=1 lb=1:    218 shell pairs
          la=2 lb=0:    377 shell pairs
          la=2 lb=1:    231 shell pairs
          la=2 lb=2:     67 shell pairs
          la=3 lb=0:     31 shell pairs
          la=3 lb=1:     19 shell pairs
          la=3 lb=2:     10 shell pairs
          la=3 lb=3:      1 shell pairs

Calculating one electron integrals          ... done (  0.0 sec)
Calculating RI/J V-Matrix + Cholesky decomp.... done (  0.1 sec)
Calculating Nuclear repulsion               ... done (  0.0 sec) ENN=    618.443901634434 Eh

SHARK setup successfully completed in   0.3 seconds

Maximum memory used throughout the entire GTOINT-calculation: 17.4 MB


           ************************************************************
           *        Program running with 48 parallel MPI-processes    *
           *              working on a common directory               *
           ************************************************************
-------------------------------------------------------------------------------
                                 ORCA SCF
-------------------------------------------------------------------------------

------------
SCF SETTINGS
------------
Hamiltonian:
 Density Functional     Method          .... DFT(GTOs)
 Exchange Functional    Exchange        .... B973C
 Correlation Functional Correlation     .... B973C
 Gradients option       PostSCFGGA      .... off
   Density functional embedding theory  .... OFF
 RI-approximation to the Coulomb term is turned on
   Number of AuxJ basis functions       .... 340


General Settings:
 Integral files         IntName         .... QJPJQTDYNZXKQF-UHFFFAOYSA-N-OPT
 Hartree-Fock type      HFTyp           .... RHF
 Total Charge           Charge          ....    0
 Multiplicity           Mult            ....    1
 Number of Electrons    NEL             ....   92
 Basis Dimension        Dim             ....  167
 Nuclear Repulsion      ENuc            ....    618.4439016344 Eh

Convergence Acceleration:
 DIIS                   CNVDIIS         .... on
   Start iteration      DIISMaxIt       ....    12
   Startup error        DIISStart       ....  0.200000
   # of expansion vecs  DIISMaxEq       ....     5
   Bias factor          DIISBfac        ....   1.050
   Max. coefficient     DIISMaxC        ....  10.000
 Trust-Rad. Augm. Hess. CNVTRAH         .... auto
   Auto Start mean grad. ratio tolernc. ....  1.125000
   Auto Start start iteration           ....    20
   Auto Start num. interpolation iter.  ....    10
   Max. Number of Micro iterations      ....    16
   Max. Number of Macro iterations      .... Maxiter - #DIIS iter
   Number of Davidson start vectors     ....     2
   Converg. threshold I  (grad. norm)   ....   1.000e-05
   Converg. threshold II (energy diff.) ....   1.000e-08
   Grad. Scal. Fac. for Micro threshold ....   0.100
   Minimum threshold for Micro iter.    ....   0.010
   NR start threshold (gradient norm)   ....   0.001
   Initial trust radius                 ....   0.400
   Minimum AH scaling param. (alpha)    ....   1.000
   Maximum AH scaling param. (alpha)    .... 1000.000
   Orbital update algorithm             .... Taylor
   White noise on init. David. guess    .... on
   Maximum white noise                  ....   0.010
   Quad. conv. algorithm                .... NR
   COSX micro iterations for RIJONX calc.... off
 SOSCF                  CNVSOSCF        .... on
   Start iteration      SOSCFMaxIt      ....   150
   Startup grad/error   SOSCFStart      ....  0.003300
 Level Shifting         CNVShift        .... on
   Level shift para.    LevelShift      ....    0.2500
   Turn off err/grad.   ShiftErr        ....    0.0010
 Zerner damping         CNVZerner       .... off
 Static damping         CNVDamp         .... on
   Fraction old density DampFac         ....    0.7000
   Max. Damping (<1)    DampMax         ....    0.9800
   Min. Damping (>=0)   DampMin         ....    0.0000
   Turn off err/grad.   DampErr         ....    0.1000
 Fernandez-Rico         CNVRico         .... off

SCF Procedure:
 Maximum # iterations   MaxIter         ....   500
 SCF integral mode      SCFMode         .... Direct
   Integral package                     .... SHARK and LIBINT hybrid scheme
 Reset frequency        DirectResetFreq ....    20
 Integral Threshold     Thresh          ....  2.500e-11 Eh
 Primitive CutOff       TCut            ....  2.500e-12 Eh

Convergence Tolerance:
 Convergence Check Mode ConvCheckMode   .... Total+1el-Energy
 Convergence forced     ConvForced      .... 0
 Energy Change          TolE            ....  1.000e-08 Eh
 1-El. energy change                    ....  1.000e-05 Eh
 Orbital Gradient       TolG            ....  1.000e-05
 Orbital Rotation angle TolX            ....  1.000e-05
 DIIS Error             TolErr          ....  5.000e-07


Diagonalization of the overlap matrix:
Smallest eigenvalue                        ... 2.842e-04
Time for diagonalization                   ...    0.009 sec
Threshold for overlap eigenvalues          ... 1.000e-08
Number of eigenvalues below threshold      ... 0
Time for construction of square roots      ...    0.014 sec
Total time needed                          ...    0.024 sec

--------------------------------
INITIAL GUESS: MINIMAL BASIS EHT
--------------------------------
The minimal basis has 65 functions
EHT matrix was diagonalized
Basis set overlap was calculated now projecting the orbitals
Using GuessMode=FMatrix for the initial guess
C*T matrix was formed
Effective Fockian was calculated
Effective Fockian was diagonalized
Initial density was built
                      ------------------
                      INITIAL GUESS DONE
                      ------------------
-------------------
DFT GRID GENERATION
-------------------

General Integration Accuracy     IntAcc      ... 4.388
Radial Grid Type                 RadialGrid  ... OptM3 with GC (2021)
Angular Grid (max. ang.)         AngularGrid ... 4 (Lebedev-302)
Angular grid pruning method      GridPruning ... 4 (adaptive)
Weight generation scheme         WeightScheme... Becke
Basis function cutoff            BFCut       ... 1.0000e-11
Integration weight cutoff        WCut        ... 1.0000e-14
Angular grids for H and He will be reduced by one unit
Partially contracted basis set               ... off
Rotationally invariant grid construction     ... off

Total number of grid points                  ...    81937
Total number of batches                      ...     1289
Average number of points per batch           ...       63
Average number of grid points per atom       ...     5121
Time for grid setup =    0.413 sec


--------------------
CPCM SOLVATION MODEL
--------------------
CPCM parameters:
  Epsilon                                         ...      47.2000
  Refrac                                          ...       1.4790
  Rsolv                                           ...       1.3000
  Surface type                                    ... GAUSSIAN VDW
  Epsilon function type                           ...         CPCM
Radii:
 Radius for Br used is    4.1952 Bohr (=   2.2200 Ang.)
 Radius for C  used is    3.8550 Bohr (=   2.0400 Ang.)
 Radius for H  used is    2.4944 Bohr (=   1.3200 Ang.)
 Radius for O  used is    3.4469 Bohr (=   1.8240 Ang.)
Calculating surface                               ...        done! (  0.0s)
GEPOL surface points                              ...          923
GEPOL Volume                                      ...    1180.2198
GEPOL Surface-area                                ...     654.9252
Calculating surface distance matrix               ...        done! (  0.0s)
Performing Cholesky decomposition & store         ...        done! (  0.0s)
Overall time for CPCM initialization              ...                 0.0s
--------------
SCF ITERATIONS
--------------
ITER       Energy         Delta-E        Max-DP      RMS-DP      [F,P]     Damp
               ***  Starting incremental Fock matrix formation  ***
  0  -2917.8358648403   0.000000000000 0.23192874  0.00699507  1.5664687 0.7000
  1  -2918.7972427228  -0.961377882457 0.21705765  0.00451911  0.8266698 0.7000
  2  -2919.3586763133  -0.561433590541 0.18235312  0.00311614  0.4893624 0.7000
  3  -2919.7436785105  -0.385002197219 0.13600107  0.00223184  0.3400189 0.7000
  4  -2920.0113734647  -0.267694954211 0.09565633  0.00159641  0.2367403 0.7000
                               ***Turning on DIIS***
  5  -2920.1977354021  -0.186361937345 0.06582873  0.00114175  0.1670213 0.7000
  6  -2920.3279331720  -0.130197769968 0.04428700  0.00083715  0.1189131 0.7000
  7  -2920.4190226608  -0.091089488756 0.10456834  0.00198763  0.0831389 0.0000
                      *** Initiating the SOSCF procedure ***
                           *** Shutting down DIIS ***
                      *** Re-Reading the Fockian *** 
                      *** Removing any level shift *** 
ITER      Energy       Delta-E        Grad      Rot      Max-DP    RMS-DP
  8  -2920.63153679  -0.2125141328  0.000425  0.000425  0.003742  0.000051
               *** Restarting incremental Fock matrix formation ***
  9  -2920.63154086  -0.0000040662  0.000394  0.000738  0.002092  0.000041
 10  -2920.63153604   0.0000048170  0.000754  0.000875  0.001459  0.000026
 11  -2920.63154312  -0.0000070722  0.000060  0.000202  0.000452  0.000009
 12  -2920.63154299   0.0000001294  0.000109  0.000133  0.000211  0.000005
 13  -2920.63154320  -0.0000002151  0.000014  0.000066  0.000084  0.000002
 14  -2920.63154319   0.0000000138  0.000031  0.000052  0.000056  0.000001
 15  -2920.63154321  -0.0000000216  0.000003  0.000011  0.000013  0.000000
 16  -2920.63154321   0.0000000003  0.000004  0.000007  0.000009  0.000000
                  ***Gradient check signals convergence***
              ***Rediagonalizing the Fockian in SOSCF/NRSCF***

               *****************************************************
               *                     SUCCESS                       *
               *           SCF CONVERGED AFTER  17 CYCLES          *
               *****************************************************


----------------
TOTAL SCF ENERGY
----------------

Total Energy       :        -2920.63154321 Eh          -79474.42469 eV

Components:
Nuclear Repulsion  :          618.44390163 Eh           16828.71412 eV
Electronic Energy  :        -3539.07544485 Eh          -96303.13881 eV
One Electron Energy:        -5281.56413090 Eh         -143718.66652 eV
Two Electron Energy:         1742.48868606 Eh           47415.52771 eV
CPCM Dielectric    :           -0.00840570 Eh              -0.22873 eV

Virial components:
Potential Energy   :        -5835.37707015 Eh         -158788.68274 eV
Kinetic Energy     :         2914.74552694 Eh           79314.25805 eV
Virial Ratio       :            2.00201939


DFT components:
N(Alpha)           :       46.000012777633 electrons
N(Beta)            :       46.000012777633 electrons
N(Total)           :       92.000025555266 electrons
E(XC)              :     -141.191895137948 Eh       
DFET-embed. en.    :        0.000000000000 Eh       
CPCM Solvation Model Properties:
Surface-charge          :           -0.02151910
Charge-correction       :            0.00006434 Eh               0.00175 eV
Free-energy (cav+disp)  :  This term is not implemented in the current solvation scheme

---------------
SCF CONVERGENCE
---------------

  Last Energy change         ...   -3.8744e-09  Tolerance :   1.0000e-08
  Last MAX-Density change    ...    3.0072e-06  Tolerance :   1.0000e-07
  Last RMS-Density change    ...    9.7107e-08  Tolerance :   5.0000e-09
  Last Orbital Gradient      ...    9.7372e-07  Tolerance :   1.0000e-05
  Last Orbital Rotation      ...    2.5857e-06  Tolerance :   1.0000e-05

             **** THE GBW FILE WAS UPDATED (QJPJQTDYNZXKQF-UHFFFAOYSA-N-OPT.gbw) ****
             **** DENSITY QJPJQTDYNZXKQF-UHFFFAOYSA-N-OPT.scfp WAS UPDATED ****
             **** ENERGY FILE WAS UPDATED (QJPJQTDYNZXKQF-UHFFFAOYSA-N-OPT.en.tmp) ****
             **** THE GBW FILE WAS UPDATED (QJPJQTDYNZXKQF-UHFFFAOYSA-N-OPT.gbw) ****
             **** DENSITY QJPJQTDYNZXKQF-UHFFFAOYSA-N-OPT.scfp WAS UPDATED ****
----------------
ORBITAL ENERGIES
----------------

  NO   OCC          E(Eh)            E(eV) 
   0   2.0000    -480.857375    -13084.7944 
   1   2.0000     -61.922749     -1685.0037 
   2   2.0000     -55.877100     -1520.4932 
   3   2.0000     -55.872835     -1520.3771 
   4   2.0000     -55.872793     -1520.3760 
   5   2.0000     -18.784270      -511.1460 
   6   2.0000      -9.969975      -271.2968 
   7   2.0000      -9.954993      -270.8891 
   8   2.0000      -9.936655      -270.3901 
   9   2.0000      -9.914114      -269.7768 
  10   2.0000      -9.913693      -269.7653 
  11   2.0000      -9.907102      -269.5859 
  12   2.0000      -9.905407      -269.5398 
  13   2.0000      -8.448740      -229.9019 
  14   2.0000      -6.332479      -172.3155 
  15   2.0000      -6.321050      -172.0045 
  16   2.0000      -6.320749      -171.9963 
  17   2.0000      -2.537842       -69.0582 
  18   2.0000      -2.535386       -68.9914 
  19   2.0000      -2.535182       -68.9858 
  20   2.0000      -2.526287       -68.7438 
  21   2.0000      -2.526281       -68.7436 
  22   2.0000      -0.979021       -26.6405 
  23   2.0000      -0.797642       -21.7049 
  24   2.0000      -0.736819       -20.0499 
  25   2.0000      -0.689845       -18.7716 
  26   2.0000      -0.673737       -18.3333 
  27   2.0000      -0.620073       -16.8730 
  28   2.0000      -0.562355       -15.3025 
  29   2.0000      -0.531720       -14.4688 
  30   2.0000      -0.491110       -13.3638 
  31   2.0000      -0.445713       -12.1285 
  32   2.0000      -0.426559       -11.6073 
  33   2.0000      -0.420094       -11.4313 
  34   2.0000      -0.406225       -11.0540 
  35   2.0000      -0.389595       -10.6014 
  36   2.0000      -0.375284       -10.2120 
  37   2.0000      -0.354403        -9.6438 
  38   2.0000      -0.335324        -9.1246 
  39   2.0000      -0.325495        -8.8572 
  40   2.0000      -0.307140        -8.3577 
  41   2.0000      -0.287467        -7.8224 
  42   2.0000      -0.259257        -7.0547 
  43   2.0000      -0.258255        -7.0275 
  44   2.0000      -0.239672        -6.5218 
  45   2.0000      -0.194596        -5.2952 
  46   0.0000      -0.042979        -1.1695 
  47   0.0000      -0.029508        -0.8030 
  48   0.0000      -0.024408        -0.6642 
  49   0.0000       0.094882         2.5819 
  50   0.0000       0.110735         3.0132 
  51   0.0000       0.172217         4.6863 
  52   0.0000       0.185864         5.0576 
  53   0.0000       0.196727         5.3532 
  54   0.0000       0.210333         5.7234 
  55   0.0000       0.212320         5.7775 
  56   0.0000       0.231053         6.2873 
  57   0.0000       0.231770         6.3068 
  58   0.0000       0.246994         6.7211 
  59   0.0000       0.256502         6.9798 
  60   0.0000       0.262472         7.1422 
  61   0.0000       0.265836         7.2338 
  62   0.0000       0.271799         7.3960 
  63   0.0000       0.306811         8.3487 
  64   0.0000       0.307455         8.3663 
  65   0.0000       0.324316         8.8251 
  66   0.0000       0.330349         8.9893 
  67   0.0000       0.349539         9.5114 
  68   0.0000       0.355676         9.6784 
  69   0.0000       0.358420         9.7531 
  70   0.0000       0.384773        10.4702 
  71   0.0000       0.389630        10.6024 
  72   0.0000       0.396284        10.7834 
  73   0.0000       0.433626        11.7996 
  74   0.0000       0.439459        11.9583 
  75   0.0000       0.450596        12.2614 
  76   0.0000       0.452772        12.3205 
  77   0.0000       0.467202        12.7132 
  78   0.0000       0.491059        13.3624 
  79   0.0000       0.501360        13.6427 
  80   0.0000       0.551376        15.0037 
  81   0.0000       0.555181        15.1072 
  82   0.0000       0.559662        15.2292 
  83   0.0000       0.576982        15.7005 
  84   0.0000       0.596531        16.2324 
  85   0.0000       0.609907        16.5964 
  86   0.0000       0.622914        16.9503 
  87   0.0000       0.650452        17.6997 
  88   0.0000       0.679585        18.4924 
  89   0.0000       0.696283        18.9468 
  90   0.0000       0.713473        19.4146 
  91   0.0000       0.767154        20.8753 
  92   0.0000       0.790955        21.5230 
  93   0.0000       0.823426        22.4066 
  94   0.0000       0.863868        23.5070 
  95   0.0000       0.883707        24.0469 
  96   0.0000       0.920089        25.0369 
  97   0.0000       0.961161        26.1545 
  98   0.0000       1.019522        27.7426 
  99   0.0000       1.038455        28.2578 
 100   0.0000       1.081965        29.4418 
 101   0.0000       1.144999        31.1570 
 102   0.0000       1.154859        31.4253 
 103   0.0000       1.206681        32.8355 
 104   0.0000       1.235443        33.6181 
 105   0.0000       1.239599        33.7312 
 106   0.0000       1.280316        34.8392 
 107   0.0000       1.281530        34.8722 
 108   0.0000       1.290628        35.1198 
 109   0.0000       1.330766        36.2120 
 110   0.0000       1.352269        36.7971 
 111   0.0000       1.364631        37.1335 
 112   0.0000       1.369042        37.2535 
 113   0.0000       1.385952        37.7137 
 114   0.0000       1.393601        37.9218 
 115   0.0000       1.420565        38.6555 
 116   0.0000       1.457429        39.6587 
 117   0.0000       1.464578        39.8532 
 118   0.0000       1.468324        39.9551 
 119   0.0000       1.495086        40.6834 
 120   0.0000       1.513738        41.1909 
 121   0.0000       1.555732        42.3336 
 122   0.0000       1.564255        42.5655 
 123   0.0000       1.581875        43.0450 
 124   0.0000       1.624684        44.2099 
 125   0.0000       1.648993        44.8714 
 126   0.0000       1.693947        46.0946 
 127   0.0000       1.707700        46.4689 
 128   0.0000       1.730123        47.0790 
 129   0.0000       1.748215        47.5713 
 130   0.0000       1.807262        49.1781 
 131   0.0000       1.810991        49.2796 
 132   0.0000       1.817792        49.4646 
 133   0.0000       1.910106        51.9766 
 134   0.0000       1.943280        52.8793 
 135   0.0000       1.987863        54.0925 
 136   0.0000       1.998917        54.3933 
 137   0.0000       2.004996        54.5587 
 138   0.0000       2.010074        54.6969 
 139   0.0000       2.037674        55.4479 
 140   0.0000       2.046562        55.6898 
 141   0.0000       2.090902        56.8963 
 142   0.0000       2.130321        57.9690 
 143   0.0000       2.192531        59.6618 
 144   0.0000       2.215524        60.2875 
 145   0.0000       2.235782        60.8387 
 146   0.0000       2.349233        63.9259 
 147   0.0000       2.362416        64.2846 
 148   0.0000       2.484539        67.6078 
 149   0.0000       2.506381        68.2021 
 150   0.0000       2.547109        69.3104 
 151   0.0000       2.606097        70.9155 
 152   0.0000       2.656865        72.2970 
 153   0.0000       2.679487        72.9126 
 154   0.0000       2.725441        74.1630 
 155   0.0000       2.828572        76.9694 
 156   0.0000       2.878430        78.3261 
 157   0.0000       2.963262        80.6344 
 158   0.0000       3.186345        86.7048 
 159   0.0000       3.319154        90.3188 
 160   0.0000       3.485768        94.8526 
 161   0.0000       3.864737       105.1649 
 162   0.0000       3.887336       105.7798 
 163   0.0000       3.900375       106.1346 
 164   0.0000       3.977574       108.2353 
 165   0.0000       4.035885       109.8220 
 166   0.0000       7.222538       196.5352 

                    ********************************
                    * MULLIKEN POPULATION ANALYSIS *
                    ********************************

-----------------------
MULLIKEN ATOMIC CHARGES
-----------------------
   0 Br:   -0.198190
   1 C :   -0.072925
   2 C :   -0.222535
   3 C :    0.283756
   4 C :   -0.144995
   5 C :   -0.175485
   6 C :    0.156697
   7 C :   -0.133745
   8 H :    0.119189
   9 H :    0.119182
  10 H :    0.118291
  11 H :    0.116464
  12 H :    0.115209
  13 H :    0.122806
  14 H :    0.116316
  15 O :   -0.320035
Sum of atomic charges:   -0.0000000

--------------------------------
MULLIKEN REDUCED ORBITAL CHARGES
--------------------------------
  0 Brs       :     7.965878  s :     7.965878
      pz      :     5.952185  p :    17.153585
      px      :     5.231598
      py      :     5.969802
      dz2     :     2.007734  d :    10.070000
      dxz     :     2.023425
      dyz     :     2.000902
      dx2y2   :     2.025062
      dxy     :     2.012878
      f0      :     0.000943  f :     0.008727
      f+1     :     0.001596
      f-1     :     0.000136
      f+2     :     0.001407
      f-2     :     0.000077
      f+3     :     0.002764
      f-3     :     0.001804
  1 C s       :     3.048817  s :     3.048817
      pz      :     1.122299  p :     2.963956
      px      :     0.973651
      py      :     0.868006
      dz2     :     0.009920  d :     0.060153
      dxz     :     0.003537
      dyz     :     0.017890
      dx2y2   :     0.012839
      dxy     :     0.015967
  2 C s       :     3.188701  s :     3.188701
      pz      :     1.062977  p :     2.997519
      px      :     0.970369
      py      :     0.964173
      dz2     :     0.003562  d :     0.036314
      dxz     :     0.005247
      dyz     :     0.003407
      dx2y2   :     0.009853
      dxy     :     0.014245
  3 C s       :     2.913479  s :     2.913479
      pz      :     0.974658  p :     2.726315
      px      :     0.761640
      py      :     0.990016
      dz2     :     0.005061  d :     0.076450
      dxz     :     0.016990
      dyz     :     0.007193
      dx2y2   :     0.024624
      dxy     :     0.022583
  4 C s       :     3.192678  s :     3.192678
      pz      :     0.992171  p :     2.912916
      px      :     0.948864
      py      :     0.971881
      dz2     :     0.003506  d :     0.039401
      dxz     :     0.006944
      dyz     :     0.003402
      dx2y2   :     0.011493
      dxy     :     0.014056
  5 C s       :     3.198547  s :     3.198547
      pz      :     1.033033  p :     2.940806
      px      :     0.933989
      py      :     0.973785
      dz2     :     0.003473  d :     0.036132
      dxz     :     0.005911
      dyz     :     0.002817
      dx2y2   :     0.009894
      dxy     :     0.014037
  6 C s       :     2.962210  s :     2.962210
      pz      :     1.069700  p :     2.836240
      px      :     0.792678
      py      :     0.973862
      dz2     :     0.002919  d :     0.044853
      dxz     :     0.005750
      dyz     :     0.007394
      dx2y2   :     0.014721
      dxy     :     0.014068
  7 C s       :     3.191630  s :     3.191630
      pz      :     0.994727  p :     2.902768
      px      :     0.938889
      py      :     0.969152
      dz2     :     0.003498  d :     0.039347
      dxz     :     0.006226
      dyz     :     0.004066
      dx2y2   :     0.010704
      dxy     :     0.014853
  8 H s       :     0.880811  s :     0.880811
  9 H s       :     0.880818  s :     0.880818
 10 H s       :     0.881709  s :     0.881709
 11 H s       :     0.883536  s :     0.883536
 12 H s       :     0.884791  s :     0.884791
 13 H s       :     0.877194  s :     0.877194
 14 H s       :     0.883684  s :     0.883684
 15 O s       :     3.741461  s :     3.741461
      pz      :     1.784194  p :     4.561141
      px      :     1.225795
      py      :     1.551152
      dz2     :     0.002362  d :     0.017433
      dxz     :     0.002804
      dyz     :     0.001726
      dx2y2   :     0.005398
      dxy     :     0.005143


                     *******************************
                     * LOEWDIN POPULATION ANALYSIS *
                     *******************************

----------------------
LOEWDIN ATOMIC CHARGES
----------------------
   0 Br:   -0.120954
   1 C :   -0.551897
   2 C :   -0.289221
   3 C :    0.011237
   4 C :   -0.236203
   5 C :   -0.262961
   6 C :   -0.046700
   7 C :   -0.238203
   8 H :    0.247884
   9 H :    0.247888
  10 H :    0.279910
  11 H :    0.279061
  12 H :    0.278056
  13 H :    0.253199
  14 H :    0.279067
  15 O :   -0.130163

-------------------------------
LOEWDIN REDUCED ORBITAL CHARGES
-------------------------------
  0 Brs       :     7.769063  s :     7.769063
      pz      :     5.942675  p :    17.190969
      px      :     5.292177
      py      :     5.956117
      dz2     :     2.018838  d :    10.143525
      dxz     :     2.044613
      dyz     :     2.001142
      dx2y2   :     2.052452
      dxy     :     2.026481
      f0      :     0.001772  f :     0.017397
      f+1     :     0.003372
      f-1     :     0.000238
      f+2     :     0.002666
      f-2     :     0.000109
      f+3     :     0.005843
      f-3     :     0.003398
  1 C s       :     3.089842  s :     3.089842
      pz      :     1.243171  p :     3.328204
      px      :     1.079786
      py      :     1.005247
      dz2     :     0.022249  d :     0.133852
      dxz     :     0.006159
      dyz     :     0.042768
      dx2y2   :     0.028519
      dxy     :     0.034156
  2 C s       :     2.932974  s :     2.932974
      pz      :     1.046097  p :     3.262197
      px      :     1.100496
      py      :     1.115604
      dz2     :     0.007916  d :     0.094050
      dxz     :     0.010981
      dyz     :     0.006272
      dx2y2   :     0.029192
      dxy     :     0.039690
  3 C s       :     2.845950  s :     2.845950
      pz      :     0.965354  p :     2.964545
      px      :     0.881087
      py      :     1.118105
      dz2     :     0.011559  d :     0.178268
      dxz     :     0.033861
      dyz     :     0.014643
      dx2y2   :     0.060006
      dxy     :     0.058199
  4 C s       :     2.931012  s :     2.931012
      pz      :     0.986895  p :     3.205722
      px      :     1.092438
      py      :     1.126390
      dz2     :     0.007723  d :     0.099470
      dxz     :     0.014849
      dyz     :     0.006298
      dx2y2   :     0.031792
      dxy     :     0.038807
  5 C s       :     2.935602  s :     2.935602
      pz      :     1.020601  p :     3.234083
      px      :     1.092564
      py      :     1.120918
      dz2     :     0.007708  d :     0.093277
      dxz     :     0.012434
      dyz     :     0.004970
      dx2y2   :     0.029184
      dxy     :     0.038980
  6 C s       :     2.869961  s :     2.869961
      pz      :     1.036548  p :     3.065879
      px      :     0.914376
      py      :     1.114955
      dz2     :     0.007257  d :     0.110860
      dxz     :     0.010742
      dyz     :     0.015331
      dx2y2   :     0.039371
      dxy     :     0.038159
  7 C s       :     2.931399  s :     2.931399
      pz      :     0.987991  p :     3.207643
      px      :     1.104997
      py      :     1.114654
      dz2     :     0.007709  d :     0.099161
      dxz     :     0.012940
      dyz     :     0.007904
      dx2y2   :     0.029882
      dxy     :     0.040725
  8 H s       :     0.752116  s :     0.752116
  9 H s       :     0.752112  s :     0.752112
 10 H s       :     0.720090  s :     0.720090
 11 H s       :     0.720939  s :     0.720939
 12 H s       :     0.721944  s :     0.721944
 13 H s       :     0.746801  s :     0.746801
 14 H s       :     0.720933  s :     0.720933
 15 O s       :     3.446737  s :     3.446737
      pz      :     1.765483  p :     4.650279
      px      :     1.299009
      py      :     1.585788
      dz2     :     0.004077  d :     0.033146
      dxz     :     0.004912
      dyz     :     0.002339
      dx2y2   :     0.011246
      dxy     :     0.010571


                      *****************************
                      * MAYER POPULATION ANALYSIS *
                      *****************************

  NA   - Mulliken gross atomic population
  ZA   - Total nuclear charge
  QA   - Mulliken gross atomic charge
  VA   - Mayer's total valence
  BVA  - Mayer's bonded valence
  FA   - Mayer's free valence

  ATOM       NA         ZA         QA         VA         BVA        FA
  0 Br    35.1982    35.0000    -0.1982     1.0929     1.0929     0.0000
  1 C      6.0729     6.0000    -0.0729     3.8625     3.8625    -0.0000
  2 C      6.2225     6.0000    -0.2225     3.8789     3.8789    -0.0000
  3 C      5.7162     6.0000     0.2838     3.9867     3.9867    -0.0000
  4 C      6.1450     6.0000    -0.1450     3.9114     3.9114     0.0000
  5 C      6.1755     6.0000    -0.1755     3.9029     3.9029    -0.0000
  6 C      5.8433     6.0000     0.1567     3.9412     3.9412     0.0000
  7 C      6.1337     6.0000    -0.1337     3.8831     3.8831    -0.0000
  8 H      0.8808     1.0000     0.1192     0.9858     0.9858    -0.0000
  9 H      0.8808     1.0000     0.1192     0.9858     0.9858     0.0000
 10 H      0.8817     1.0000     0.1183     0.9860     0.9860    -0.0000
 11 H      0.8835     1.0000     0.1165     0.9864     0.9864     0.0000
 12 H      0.8848     1.0000     0.1152     0.9867     0.9867     0.0000
 13 H      0.8772     1.0000     0.1228     0.9849     0.9849    -0.0000
 14 H      0.8837     1.0000     0.1163     0.9865     0.9865    -0.0000
 15 O      8.3200     8.0000    -0.3200     2.1861     2.1861     0.0000

  Mayer bond orders larger than 0.100000
B(  0-Br,  6-C ) :   0.9797 B(  1-C ,  8-H ) :   0.9690 B(  1-C ,  9-H ) :   0.9690 
B(  1-C , 13-H ) :   0.9729 B(  1-C , 15-O ) :   0.9155 B(  2-C ,  3-C ) :   1.3620 
B(  2-C ,  4-C ) :   1.3594 B(  2-C , 10-H ) :   0.9678 B(  3-C ,  5-C ) :   1.3811 
B(  3-C ,  6-C ) :   0.1026 B(  3-C , 15-O ) :   1.1340 B(  4-C ,  6-C ) :   1.4375 
B(  4-C , 11-H ) :   0.9756 B(  5-C ,  7-C ) :   1.3931 B(  5-C , 12-H ) :   0.9754 
B(  6-C ,  7-C ) :   1.3996 B(  7-C , 14-H ) :   0.9770 

-------
TIMINGS
-------

Total SCF time: 0 days 0 hours 0 min 8 sec 

Total time                  ....       8.435 sec
Sum of individual times     ....       7.953 sec  ( 94.3%)

Fock matrix formation       ....       7.005 sec  ( 83.1%)
  Split-RI-J                ....       1.222 sec  ( 17.4% of F)
  XC integration            ....       2.294 sec  ( 32.7% of F)
    Basis function eval.    ....       0.074 sec  (  3.2% of XC)
    Density eval.           ....       0.059 sec  (  2.6% of XC)
    XC-Functional eval.     ....       0.037 sec  (  1.6% of XC)
    XC-Potential eval.      ....       0.042 sec  (  1.8% of XC)
Diagonalization             ....       0.218 sec  (  2.6%)
Density matrix formation    ....       0.008 sec  (  0.1%)
Population analysis         ....       0.053 sec  (  0.6%)
Initial guess               ....       0.014 sec  (  0.2%)
Orbital Transformation      ....       0.000 sec  (  0.0%)
Orbital Orthonormalization  ....       0.000 sec  (  0.0%)
DIIS solution               ....       0.114 sec  (  1.4%)
SOSCF solution              ....       0.127 sec  (  1.5%)
Grid generation             ....       0.413 sec  (  4.9%)

Maximum memory used throughout the entire SCF-calculation: 26.1 MB


-------------------------------------------------------------------------------
                          DFT DISPERSION CORRECTION                            
                                                                               
                              DFTD3 V3.1  Rev 1                                
                          USING Becke-Johnson damping                          
-------------------------------------------------------------------------------
The B97-3c composite method is recognized
Using three-body term ABC
Active option DFTDOPT                   ...         4   

molecular C6(AA) [au] = 3922.868725 


            DFT-D V3
 parameters
 s6 scaling factor         :     1.0000 
 a1 scaling factor         :     0.3700 
 s8 scaling factor         :     1.5000 
 a2 scaling factor         :     4.1000 
 Damping factor alpha9(ATM):    16.0000 
 ad hoc parameters k1-k3   :    16.0000     1.3333    -4.0000 

 Edisp/kcal,au: -25.334698684140  -0.040373407939 
 E6   /kcal   : -12.185052193 
 E8   /kcal   : -13.150467335 
 E6(ABC)      :   0.000820844 
 % E8         :  51.906941934 
 % E6(ABC)    :  -0.003239998 

-------------------------   ----------------
Dispersion correction           -0.040373408
-------------------------   ----------------

------------------   -----------------
SRB correction            -0.049860585
------------------   -----------------

-------------------------   --------------------
FINAL SINGLE POINT ENERGY     -2920.721777204970
-------------------------   --------------------



           ************************************************************
           *        Program running with 48 parallel MPI-processes    *
           *              working on a common directory               *
           ************************************************************
------------------------------------------------------------------------------
                         ORCA SCF GRADIENT CALCULATION
------------------------------------------------------------------------------

Gradient of the Kohn-Sham DFT energy:
Kohn-Sham wavefunction type      ... RKS
Hartree-Fock exchange scaling    ...    0.000
Number of operators              ...    1
Number of atoms                  ...   16
Basis set dimensions             ...  167
Integral neglect threshold       ... 2.5e-11
Integral primitive cutoff        ... 2.5e-12
SHARK Integral package           ... ON

Nuc. rep. gradient       (SHARK) ... done (  0.0 sec)
HCore & Overlap gradient (SHARK) ... done (  0.0 sec)
RI-J gradient            (SHARK) ... done (  0.3 sec)
Exchange-correlation gradient    ... done
Dispersion correction            ... done
SRB correction                   ... done

------------------
CARTESIAN GRADIENT
------------------

   1   Br  :    0.000432834   -0.000120519    0.000011831
   2   C   :   -0.002344832    0.002298196   -0.000046053
   3   C   :   -0.006193772    0.004155741    0.000006411
   4   C   :   -0.012860231   -0.004776475    0.000000398
   5   C   :    0.005005280    0.004077822    0.000017157
   6   C   :   -0.006009534   -0.001796529    0.000008457
   7   C   :    0.010153334    0.001234682   -0.000034416
   8   C   :    0.005145083   -0.003698549    0.000004005
   9   H   :    0.000433471    0.001767795   -0.002740307
  10   H   :    0.000427160    0.001777195    0.002769860
  11   H   :   -0.003759708    0.005558741   -0.000003765
  12   H   :    0.002309491    0.006242416   -0.000004555
  13   H   :   -0.002358430   -0.007446569   -0.000003249
  14   H   :   -0.004454196   -0.000152552    0.000012042
  15   H   :    0.003157126   -0.006145628    0.000000381
  16   O   :    0.010916925   -0.002975767    0.000001802

Difference to translation invariance:
           :    0.0000000002   -0.0000000000    0.0000000000

Difference to rotation invariance:
           :   -0.0000005898    0.0000007373    0.0006294275

Norm of the cartesian gradient     ...    0.0291277790
RMS gradient                       ...    0.0042042328
MAX gradient                       ...    0.0128602308

-------
TIMINGS
-------

Total SCF gradient time            ...        0.717 sec

One electron gradient       ....       0.011 sec  (  1.5%)
RI-J Coulomb gradient       ....       0.276 sec  ( 38.5%)
XC gradient                 ....       0.097 sec  ( 13.6%)
CPCM gradient               ....       0.110 sec  ( 15.4%)
   A-Matrix (El+Nuc)        ....       0.068 sec  (  9.5%)
   Potential                ....       0.042 sec  (  5.9%)

Maximum memory used throughout the entire SCFGRAD-calculation: 29.5 MB
------------------------------------------------------------------------------
                         ORCA GEOMETRY RELAXATION STEP
------------------------------------------------------------------------------

Reading the OPT-File                    .... done
Getting information on internals        .... done
Copying old internal coords+grads       .... done
Making the new internal coordinates     .... (new redundants).... done
Validating the new internal coordinates .... (new redundants).... done
Calculating the B-matrix                .... done
Calculating the G,G- and P matrices     .... done
Transforming gradient to internals      .... done
Projecting the internal gradient        .... done
Number of atoms                         ....  16
Number of internal coordinates          ....  70
Current Energy                          .... -2920.721777205 Eh
Current gradient norm                   ....     0.029127779 Eh/bohr
Maximum allowed component of the step   ....  0.300
Current trust radius                    ....  0.300
Evaluating the initial hessian          ....  (Almloef) done
Projecting the Hessian                  .... done
Forming the augmented Hessian           .... done
Diagonalizing the augmented Hessian     .... done
Last element of RFO vector              ....  0.997912178
Lowest eigenvalues of augmented Hessian:
 -0.002149566  0.021754787  0.026218083  0.026950641  0.027351537
Length of the computed step             ....  0.064720610
The final length of the internal step   ....  0.064720610
Converting the step to cartesian space:
 Initial RMS(Int)=    0.0077355925
Transforming coordinates:
 Iter   0:  RMS(Cart)=    0.0156340531 RMS(Int)=    0.7510164257
 Iter   1:  RMS(Cart)=    0.0000473121 RMS(Int)=    0.7509841210
 Iter   2:  RMS(Cart)=    0.0000003271 RMS(Int)=    0.0000001896
 Iter   3:  RMS(Cart)=    0.0000000019 RMS(Int)=    0.0000000012
done
Storing new coordinates                 .... done

                                .--------------------.
          ----------------------|Geometry convergence|-------------------------
          Item                value                   Tolerance       Converged
          ---------------------------------------------------------------------
          RMS gradient        0.0040929615            0.0001000000      NO
          MAX gradient        0.0131691993            0.0003000000      NO
          RMS step            0.0077355925            0.0020000000      NO
          MAX step            0.0206073388            0.0040000000      NO
          ........................................................
          Max(Bonds)      0.0109      Max(Angles)    0.43
          Max(Dihed)        0.10      Max(Improp)    0.00
          ---------------------------------------------------------------------

The optimization has not yet converged - more geometry cycles are needed


    ---------------------------------------------------------------------------
                         Redundant Internal Coordinates
                            (Angstroem and degrees)

        Definition                    Value    dE/dq     Step     New-Value
    ----------------------------------------------------------------------------
     1. B(C   3,C   2)                1.3919 -0.010667  0.0090    1.4009   
     2. B(C   4,C   2)                1.3847 -0.013169  0.0109    1.3956   
     3. B(C   5,C   3)                1.3978 -0.009432  0.0081    1.4060   
     4. B(C   6,Br  0)                1.9059 -0.000425  0.0007    1.9067   
     5. B(C   6,C   4)                1.3812 -0.011337  0.0093    1.3906   
     6. B(C   7,C   6)                1.3863 -0.011837  0.0099    1.3962   
     7. B(C   7,C   5)                1.3775 -0.013088  0.0106    1.3881   
     8. B(H   8,C   1)                1.0945 -0.003283  0.0049    1.0994   
     9. B(H   9,C   1)                1.0945 -0.003312  0.0049    1.0994   
    10. B(H  10,C   2)                1.0782 -0.006710  0.0094    1.0876   
    11. B(H  11,C   4)                1.0792 -0.006623  0.0093    1.0885   
    12. B(H  12,C   5)                1.0781 -0.007698  0.0108    1.0889   
    13. B(H  13,C   1)                1.0886 -0.004198  0.0061    1.0947   
    14. B(H  14,C   7)                1.0789 -0.006857  0.0096    1.0886   
    15. B(O  15,C   1)                1.4081 -0.008104  0.0082    1.4162   
    16. B(O  15,C   3)                1.3572  0.005315 -0.0044    1.3527   
    17. A(H   8,C   1,H  13)          109.27  0.000670   -0.09    109.17   
    18. A(H   9,C   1,O  15)          111.53  0.000483   -0.09    111.45   
    19. A(H   9,C   1,H  13)          109.28  0.000690   -0.10    109.18   
    20. A(H  13,C   1,O  15)          105.61 -0.002405    0.43    106.05   
    21. A(H   8,C   1,O  15)          111.53  0.000474   -0.09    111.44   
    22. A(H   8,C   1,H   9)          109.51  0.000046   -0.05    109.46   
    23. A(C   3,C   2,H  10)          121.21  0.000054   -0.01    121.20   
    24. A(C   3,C   2,C   4)          120.11  0.000305   -0.05    120.06   
    25. A(C   4,C   2,H  10)          118.68 -0.000359    0.06    118.74   
    26. A(C   2,C   3,O  15)          125.02  0.002947   -0.38    124.64   
    27. A(C   2,C   3,C   5)          119.22 -0.001345    0.16    119.38   
    28. A(C   5,C   3,O  15)          115.76 -0.001602    0.22    115.98   
    29. A(C   6,C   4,H  11)          120.27 -0.000955    0.14    120.41   
    30. A(C   2,C   4,H  11)          119.94  0.000465   -0.09    119.86   
    31. A(C   2,C   4,C   6)          119.78  0.000490   -0.06    119.73   
    32. A(C   7,C   5,H  12)          120.85  0.001023   -0.17    120.69   
    33. A(C   3,C   5,H  12)          118.42 -0.001652    0.26    118.69   
    34. A(C   3,C   5,C   7)          120.72  0.000629   -0.10    120.63   
    35. A(C   4,C   6,C   7)          120.92 -0.000044    0.03    120.94   
    36. A(Br  0,C   6,C   7)          119.53  0.000268   -0.05    119.49   
    37. A(Br  0,C   6,C   4)          119.55 -0.000224    0.02    119.57   
    38. A(C   6,C   7,H  14)          120.30 -0.000820    0.13    120.43   
    39. A(C   5,C   7,H  14)          120.45  0.000856   -0.14    120.31   
    40. A(C   5,C   7,C   6)          119.25 -0.000035    0.02    119.26   
    41. A(C   1,O  15,C   3)          118.77 -0.000314    0.04    118.81   
    42. D(O  15,C   3,C   2,C   4)   -179.99  0.000002   -0.00   -180.00   
    43. D(C   5,C   3,C   2,C   4)      0.00  0.000002   -0.00     -0.00   
    44. D(C   5,C   3,C   2,H  10)    180.00 -0.000001    0.00    180.00   
    45. D(O  15,C   3,C   2,H  10)     -0.00 -0.000000    0.00     -0.00   
    46. D(C   6,C   4,C   2,C   3)      0.00  0.000002   -0.00      0.00   
    47. D(C   6,C   4,C   2,H  10)   -179.99  0.000005   -0.01   -180.00   
    48. D(H  11,C   4,C   2,H  10)      0.00  0.000001   -0.00     -0.00   
    49. D(H  11,C   4,C   2,C   3)    180.00 -0.000001    0.00    180.00   
    50. D(H  12,C   5,C   3,O  15)     -0.00 -0.000001    0.00      0.00   
    51. D(H  12,C   5,C   3,C   2)   -180.00 -0.000000    0.00   -180.00   
    52. D(C   7,C   5,C   3,O  15)    179.99 -0.000003    0.01    180.00   
    53. D(C   7,C   5,C   3,C   2)     -0.01 -0.000003    0.01      0.00   
    54. D(C   7,C   6,C   4,C   2)     -0.01 -0.000005    0.01      0.00   
    55. D(Br  0,C   6,C   4,H  11)      0.03  0.000011   -0.02      0.01   
    56. D(Br  0,C   6,C   4,C   2)   -179.98  0.000008   -0.02   -179.99   
    57. D(C   7,C   6,C   4,H  11)    180.00 -0.000002    0.00    180.00   
    58. D(H  14,C   7,C   6,C   4)   -179.99  0.000005   -0.01   -180.00   
    59. D(C   5,C   7,C   6,C   4)      0.01  0.000004   -0.01     -0.00   
    60. D(C   5,C   7,C   6,Br  0)    179.98 -0.000009    0.02    179.99   
    61. D(H  14,C   7,C   5,H  12)     -0.01 -0.000004    0.01     -0.00   
    62. D(H  14,C   7,C   5,C   3)    180.00 -0.000001    0.00    180.00   
    63. D(H  14,C   7,C   6,Br  0)     -0.02 -0.000009    0.02     -0.01   
    64. D(C   6,C   7,C   5,H  12)    179.99 -0.000003    0.01    180.00   
    65. D(C   6,C   7,C   5,C   3)     -0.00 -0.000000    0.00      0.00   
    66. D(C   1,O  15,C   3,C   5)    179.99 -0.000001    0.00    180.00   
    67. D(C   1,O  15,C   3,C   2)     -0.01 -0.000002    0.00     -0.00   
    68. D(C   3,O  15,C   1,H  13)   -180.00  0.000008   -0.00   -180.00   
    69. D(C   3,O  15,C   1,H   9)     61.40  0.000371   -0.10     61.30   
    70. D(C   3,O  15,C   1,H   8)    -61.40 -0.000382    0.10    -61.30   
    ----------------------------------------------------------------------------

         *************************************************************
         *                GEOMETRY OPTIMIZATION CYCLE   2            *
         *************************************************************
---------------------------------
CARTESIAN COORDINATES (ANGSTROEM)
---------------------------------
  Br    -2.412918   -0.087316   -0.000111
  C      4.464865   -0.687446    0.000179
  C      1.651072   -1.016834   -0.000089
  C      2.269107    0.240367   -0.000007
  C      0.258659   -1.111261   -0.000178
  C      1.474001    1.399900   -0.000021
  C     -0.510991    0.046878   -0.000188
  C      0.088998    1.307612   -0.000111
  H      4.317256   -1.304853    0.897813
  H      4.317378   -1.304973   -0.897380
  H      2.237291   -1.932877   -0.000115
  H     -0.218173   -2.089793   -0.000284
  H      1.966234    2.371156    0.000015
  H      5.485259   -0.291006    0.000304
  H     -0.521642    2.208780   -0.000120
  O      3.607089    0.439447    0.000072

----------------------------
CARTESIAN COORDINATES (A.U.)
----------------------------
  NO LB      ZA    FRAG     MASS         X           Y           Z
   0 Br   35.0000    0    79.900   -4.559754   -0.165003   -0.000209
   1 C     6.0000    0    12.011    8.437372   -1.299084    0.000339
   2 C     6.0000    0    12.011    3.120075   -1.921537   -0.000169
   3 C     6.0000    0    12.011    4.287991    0.454228   -0.000014
   4 C     6.0000    0    12.011    0.488795   -2.099978   -0.000337
   5 C     6.0000    0    12.011    2.785459    2.645427   -0.000040
   6 C     6.0000    0    12.011   -0.965633    0.088586   -0.000355
   7 C     6.0000    0    12.011    0.168182    2.471029   -0.000210
   8 H     1.0000    0     1.008    8.158431   -2.465815    1.696621
   9 H     1.0000    0     1.008    8.158662   -2.466042   -1.695802
  10 H     1.0000    0     1.008    4.227868   -3.652607   -0.000217
  11 H     1.0000    0     1.008   -0.412288   -3.949136   -0.000536
  12 H     1.0000    0     1.008    3.715643    4.480835    0.000028
  13 H     1.0000    0     1.008   10.365636   -0.549922    0.000575
  14 H     1.0000    0     1.008   -0.985761    4.173989   -0.000227
  15 O     8.0000    0    15.999    6.816411    0.830435    0.000136

--------------------------------
INTERNAL COORDINATES (ANGSTROEM)
--------------------------------
 Br     0   0   0     0.000000000000     0.00000000     0.00000000
 C      1   0   0     6.903915627509     0.00000000     0.00000000
 C      2   1   0     2.833006290920    11.66355609     0.00000000
 C      3   2   1     1.400900172517    57.14468338     0.00000000
 C      3   2   4     1.395611416239   177.20281901   359.96407693
 C      4   3   2     1.405955189345   119.38253452   180.00178053
 C      5   3   4     1.390556061116   119.72675299     0.00000000
 C      6   4   3     1.388074394499   120.62672738     0.00000000
 H      2   1   7     1.099421238883    85.12955984   125.00287223
 H      2   1   7     1.099411006815    85.13247586   235.04981217
 H      3   2  10     1.087560210065    64.05967319    56.40170130
 H      5   3  11     1.088528452324   119.85927409     0.00000000
 H      6   4   3     1.088866776373   118.68518952   180.00168416
 H      2   1   7     1.094699672368   153.78126471     0.03979988
 H      8   6   4     1.088570275983   120.30975418   179.99993360
 O      4   3   2     1.352711550531   124.64157925     0.00000000

---------------------------
INTERNAL COORDINATES (A.U.)
---------------------------
 Br     0   0   0     0.000000000000     0.00000000     0.00000000
 C      1   0   0    13.046509787690     0.00000000     0.00000000
 C      2   1   0     5.353606025514    11.66355609     0.00000000
 C      3   2   1     2.647317667021    57.14468338     0.00000000
 C      3   2   4     2.637323366066   177.20281901   359.96407693
 C      4   3   2     2.656870264428   119.38253452   180.00178053
 C      5   3   4     2.627770129374   119.72675299     0.00000000
 C      6   4   3     2.623080459111   120.62672738     0.00000000
 H      2   1   7     2.077605047305    85.12955984   125.00287223
 H      2   1   7     2.077585711499    85.13247586   235.04981217
 H      3   2  10     2.055190951173    64.05967319    56.40170130
 H      5   3  11     2.057020663873   119.85927409     0.00000000
 H      6   4   3     2.057660003671   118.68518952   180.00168416
 H      2   1   7     2.068682579669   153.78126471     0.03979988
 H      8   6   4     2.057099699134   120.30975418   179.99993360
 O      4   3   2     2.556254368696   124.64157925     0.00000000



           ************************************************************
           *        Program running with 48 parallel MPI-processes    *
           *              working on a common directory               *
           ************************************************************
------------------------------------------------------------------------------
                   ___                                                        
                  /   \      - P O W E R E D   B Y -                         
                 /     \                                                     
                 |  |  |   _    _      __       _____    __    __             
                 |  |  |  | |  | |    /  \     |  _  \  |  |  /  |          
                  \  \/   | |  | |   /    \    | | | |  |  | /  /          
                 / \  \   | |__| |  /  /\  \   | |_| |  |  |/  /          
                |  |  |   |  __  | /  /__\  \  |    /   |      \           
                |  |  |   | |  | | |   __   |  |    \   |  |\   \          
                \     /   | |  | | |  |  |  |  | |\  \  |  | \   \       
                 \___/    |_|  |_| |__|  |__|  |_| \__\ |__|  \__/        
[...]
     35      -0.000006   0.000022  -0.000026   0.000016   0.000011   0.000010
     36       0.028070   0.283843   0.373709  -0.118698   0.378980   0.127496
     37      -0.020102  -0.184660  -0.175178   0.163158  -0.329995  -0.046743
     38       0.000001   0.000011   0.000023   0.000008   0.000012   0.000009
     39       0.376905  -0.040710   0.012244  -0.117040  -0.005577  -0.171813
     40      -0.597105  -0.072684   0.016009   0.078709   0.068385   0.493897
     41       0.000020  -0.000003  -0.000001  -0.000004  -0.000009   0.000015
     42       0.038711   0.450828   0.440184   0.135418  -0.135302   0.124844
     43      -0.001958   0.153647   0.315426   0.179256  -0.273319   0.056197
     44       0.000002   0.000036   0.000035   0.000006  -0.000011   0.000010
     45      -0.017809   0.265109  -0.011077   0.104087   0.016561   0.029398
     46      -0.059751  -0.029545  -0.019066   0.052719  -0.041823  -0.014529
     47      -0.000002   0.000018  -0.000001   0.000008   0.000001   0.000001
                 36         37         38         39         40         41    
      0       0.000000   0.000001   0.000763   0.000260   0.000820  -0.000009
      1      -0.000000  -0.000110  -0.000006  -0.001212   0.000280  -0.000001
      2      -0.000011   0.000000  -0.000000   0.000000   0.000000   0.000000
      3       0.000002  -0.040632   0.019538  -0.012292   0.022212  -0.011982
      4       0.000002  -0.026449  -0.035726  -0.010224  -0.018532   0.046780
      5      -0.053433  -0.000002   0.000001  -0.000001   0.000001   0.000000
      6       0.000002   0.011013   0.036240   0.124669   0.283780   0.000196
      7       0.000001  -0.002675   0.075056   0.251869   0.079580  -0.001058
      8       0.000447   0.000001   0.000005   0.000014   0.000021  -0.000000
      9       0.000001   0.026968  -0.160144  -0.026232  -0.259071   0.002384
     10       0.000001   0.009882   0.009903  -0.391613   0.032293   0.000185
     11      -0.000974   0.000002  -0.000012  -0.000010  -0.000018   0.000000
     12      -0.000001  -0.019088   0.122358   0.107051  -0.269710   0.000173
     13      -0.000001   0.000867  -0.086122  -0.221789   0.072278  -0.000197
     14       0.000431  -0.000001   0.000007   0.000004  -0.000017  -0.000000
     15      -0.000000  -0.016000   0.024902  -0.060857   0.342538  -0.000515
     16      -0.000001   0.008690  -0.085895   0.200942  -0.095482   0.000109
     17       0.000480  -0.000001   0.000001  -0.000001   0.000022  -0.000000
     18      -0.000000   0.010254  -0.117145  -0.021227   0.119329  -0.000069
     19       0.000001   0.009260  -0.013393   0.355078  -0.038735   0.000111
     20      -0.000147   0.000001  -0.000008   0.000005   0.000008  -0.000000
     21       0.000001  -0.004311   0.135332  -0.126227  -0.257330  -0.000026
     22       0.000000  -0.012815   0.114855  -0.234653  -0.052284   0.000094
     23       0.000129  -0.000001   0.000012  -0.000013  -0.000019  -0.000000
     24       0.491929   0.289631  -0.117857  -0.009645  -0.086356  -0.092922
     25       0.016948   0.420891   0.256369  -0.005740   0.099592  -0.358330
     26       0.058492   0.348291   0.172947   0.004363   0.068412   0.540640
     27      -0.491907   0.289707  -0.117833  -0.009643  -0.086347  -0.092845
     28      -0.016944   0.420904   0.256376  -0.005739   0.099595  -0.358318
     29       0.058414  -0.348239  -0.172956  -0.004364  -0.068421  -0.540671
     30      -0.000008  -0.025106  -0.362004  -0.415219  -0.275919  -0.007766
     31      -0.000006  -0.029248  -0.168564  -0.067506  -0.284296   0.010446
     32      -0.020022  -0.000002  -0.000030  -0.000032  -0.000023  -0.000000
     33      -0.000002   0.033781  -0.379890  -0.324633   0.231378  -0.000242
     34      -0.000001  -0.025896   0.145233  -0.041187  -0.172436  -0.000070
     35       0.000956   0.000002  -0.000027  -0.000027   0.000011  -0.000000
     36       0.000000   0.056685  -0.320843   0.224069  -0.359892   0.000856
     37      -0.000001  -0.026255   0.065058   0.085956   0.252367   0.000675
     38      -0.001211   0.000004  -0.000027   0.000022  -0.000020  -0.000000
     39      -0.000042   0.137049  -0.049227  -0.054260  -0.011055   0.346791
     40      -0.000034  -0.450354   0.155681   0.088890   0.089123   0.136207
     41       0.710806  -0.000017  -0.000003  -0.000005  -0.000001   0.000028
     42      -0.000002   0.034002  -0.393389   0.327775   0.132264   0.000694
     43      -0.000002   0.010698  -0.231390   0.046147   0.224555  -0.001359
     44      -0.000974   0.000003  -0.000033   0.000025   0.000012   0.000000
     45      -0.000001  -0.027531   0.060029   0.026529   0.038331  -0.002306
     46      -0.000000  -0.009717  -0.014128   0.037531  -0.005158   0.001414
     47      -0.010918  -0.000002   0.000004   0.000003   0.000002  -0.000000
                 42         43         44         45         46         47    
      0       0.000000   0.000002  -0.000025  -0.000040  -0.000045   0.000027
      1       0.000000  -0.000001  -0.000005   0.000007  -0.000013  -0.000006
      2       0.000002  -0.000000  -0.000000  -0.000000  -0.000000  -0.000000
      3       0.000006   0.079009  -0.000334  -0.001261   0.000173  -0.001915
      4       0.000001   0.051751  -0.000046  -0.000975   0.000121  -0.002121
      5      -0.096687   0.000005   0.000000  -0.000000  -0.000000  -0.000000
      6      -0.000000   0.001539   0.000188   0.008165   0.003001   0.045782
      7       0.000000  -0.002409  -0.000529  -0.018326  -0.004282  -0.071215
      8       0.000022   0.000000   0.000000   0.000000   0.000000   0.000002
      9       0.000000  -0.001045   0.001406   0.000239  -0.002368   0.002080
     10      -0.000000   0.000607  -0.001503  -0.000073   0.002583   0.003160
     11       0.000434  -0.000000  -0.000000  -0.000000  -0.000000  -0.000000
     12       0.000000   0.000277  -0.001176   0.035531   0.002199  -0.012160
     13       0.000000   0.000665  -0.001154   0.076612   0.006020  -0.020037
     14      -0.000121   0.000000  -0.000000   0.000004   0.000000  -0.000001
     15       0.000000   0.000148   0.022980   0.002961  -0.031091   0.000583
     16       0.000000   0.000216   0.052084   0.005562  -0.058588   0.002099
     17      -0.000097   0.000000   0.000003   0.000000  -0.000003   0.000000
     18       0.000000  -0.000009   0.001503   0.002518   0.001947  -0.001176
     19       0.000000   0.000004   0.001939  -0.002865   0.002477   0.001223
     20      -0.000033  -0.000000   0.000000   0.000000   0.000000   0.000000
     21       0.000000  -0.000047   0.034004  -0.003080   0.034935  -0.001834
     22      -0.000000   0.000035  -0.054696   0.002970  -0.048389   0.002877
     23      -0.000009   0.000000   0.000001  -0.000000   0.000001  -0.000000
     24      -0.109713  -0.032251   0.000098   0.001449   0.000062   0.004360
     25      -0.390415  -0.132455  -0.000505   0.003295   0.000192   0.008816
     26       0.575157   0.210350   0.000388  -0.005360  -0.000168  -0.013146
     27       0.109629  -0.032217   0.000098   0.001449   0.000062   0.004358
     28       0.390397  -0.132435  -0.000505   0.003295   0.000192   0.008816
     29       0.575187  -0.210339  -0.000388   0.005360   0.000168   0.013147
     30       0.000001  -0.018861  -0.003816  -0.130362  -0.033783  -0.522193
     31      -0.000001   0.027573   0.006750   0.206918   0.051599   0.810038
     32       0.001936  -0.000001  -0.000000  -0.000005  -0.000002  -0.000021
     33      -0.000000  -0.003633   0.007231  -0.415935  -0.030596   0.108164
     34      -0.000000  -0.007923   0.014532  -0.867162  -0.064847   0.220796
     35       0.000133  -0.000000   0.000000  -0.000044  -0.000002   0.000011
     36      -0.000000  -0.001747  -0.289496  -0.031817   0.326741  -0.009638
     37      -0.000000  -0.003815  -0.595958  -0.065020   0.664395  -0.021454
     38       0.000087  -0.000000  -0.000033  -0.000005   0.000037  -0.000001
     39       0.000018  -0.862189   0.002378   0.013029  -0.000585   0.020840
     40       0.000007  -0.347619   0.001224   0.005909  -0.000543   0.010449
     41      -0.010609  -0.000066   0.000000   0.000001  -0.000000   0.000002
     42      -0.000000   0.000330  -0.412664   0.025860  -0.368572   0.020037
     43       0.000000  -0.000549   0.618871  -0.037578   0.546788  -0.030114
     44       0.000049   0.000000  -0.000016   0.000001  -0.000015   0.000000
     45      -0.000000  -0.000086   0.000016   0.000155   0.000342  -0.000109
     46      -0.000000  -0.000559   0.000161   0.000016  -0.000284  -0.000367
     47       0.000485   0.000000  -0.000000   0.000000  -0.000000   0.000000


-----------
IR SPECTRUM
-----------

 Mode   freq       eps      Int      T**2         TX        TY        TZ
       cm**-1   L/(mol*cm) km/mol    a.u.
----------------------------------------------------------------------------
  6:     73.78   0.000328    1.66  0.001388  ( 0.000021  0.000001 -0.037257)
  7:    134.34   0.001019    5.15  0.002367  ( 0.000010 -0.000003  0.048653)
  8:    178.51   0.000402    2.03  0.000703  (-0.024707 -0.009615 -0.000001)
  9:    229.62   0.000021    0.11  0.000028  (-0.000006  0.000001  0.005334)
 10:    260.68   0.000605    3.06  0.000724  (-0.026896  0.000803 -0.000002)
 11:    311.87   0.000259    1.31  0.000259  (-0.012998 -0.009497 -0.000002)
 12:    318.03   0.001016    5.13  0.000997  (-0.000003  0.000002  0.031574)
 13:    418.07   0.000001    0.00  0.000000  ( 0.000004  0.000023 -0.000700)
 14:    483.59   0.000121    0.61  0.000078  ( 0.004227  0.007778  0.000001)
 15:    505.53   0.005040   25.47  0.003111  ( 0.000012  0.000011 -0.055779)
 16:    602.06   0.012587   63.61  0.006524  ( 0.079429  0.014676  0.000006)
 17:    635.45   0.001052    5.31  0.000516  ( 0.022578  0.002582  0.000002)
 18:    695.62   0.000264    1.34  0.000119  (-0.000002  0.000006 -0.010891)
 19:    793.95   0.000932    4.71  0.000366  (-0.000002  0.000002  0.019141)
 20:    804.79   0.000568    2.87  0.000220  (-0.007693  0.012693  0.000002)
 21:    821.62   0.020494  103.57  0.007784  (-0.000019 -0.000006  0.088227)
 22:    931.83   0.000087    0.44  0.000029  ( 0.000000 -0.000005 -0.005388)
 23:    949.89   0.000026    0.13  0.000008  ( 0.000003  0.000011 -0.002902)
 24:    999.36   0.006633   33.52  0.002071  (-0.045384 -0.003414 -0.000002)
 25:   1049.62   0.013908   70.28  0.004135  (-0.048697  0.041995 -0.000002)
 26:   1075.09   0.004727   23.89  0.001372  (-0.033971 -0.014764 -0.000004)
 27:   1119.69   0.004489   22.69  0.001251  ( 0.001698  0.035330  0.000000)
 28:   1168.35   0.000012    0.06  0.000003  (-0.000002  0.000001 -0.001757)
 29:   1179.65   0.006089   30.77  0.001611  (-0.039608  0.006472 -0.000003)
 30:   1206.32   0.002291   11.58  0.000593  (-0.023257  0.007200 -0.000002)
 31:   1298.55   0.083468  421.81  0.020059  (-0.140987  0.013463 -0.000009)
 32:   1307.59   0.001464    7.40  0.000349  ( 0.017030  0.007699  0.000001)
 33:   1358.11   0.008421   42.55  0.001935  (-0.041777  0.013768 -0.000002)
 34:   1434.43   0.000124    0.63  0.000027  (-0.004836  0.001922 -0.000001)
 35:   1468.39   0.008942   45.19  0.001900  ( 0.041570  0.013126  0.000004)
 36:   1490.19   0.005759   29.10  0.001206  (-0.000000  0.000000  0.034726)
 37:   1500.05   0.020434  103.27  0.004251  ( 0.063981  0.012548  0.000004)
 38:   1514.37   0.051661  261.08  0.010646  (-0.103116  0.003588 -0.000008)
 39:   1604.49   0.004250   21.48  0.000827  (-0.025913 -0.012451 -0.000002)
 40:   1631.83   0.018888   95.45  0.003612  (-0.059859  0.005390 -0.000004)
 41:   2989.36   0.005858   29.60  0.000611  (-0.021580  0.012074 -0.000001)
 42:   3071.18   0.001269    6.41  0.000129  ( 0.000001  0.000000 -0.011356)
 43:   3117.97   0.001148    5.80  0.000115  ( 0.010676  0.000984  0.000001)
 44:   3146.90   0.000334    1.69  0.000033  ( 0.005756  0.000189  0.000000)
 45:   3150.48   0.000268    1.36  0.000027  ( 0.004198  0.002996  0.000000)
 46:   3157.44   0.000420    2.12  0.000042  (-0.003392 -0.005478 -0.000000)
 47:   3170.48   0.000532    2.69  0.000052  ( 0.006844 -0.002349  0.000000)

* The epsilon (eps) is given for a Dirac delta lineshape.
** The dipole moment derivative (T) already includes vibrational overlap.

The first frequency considered to be a vibration is 6
The total number of vibrations considered is 42


--------------------------
THERMOCHEMISTRY AT 298.15K
--------------------------

Temperature         ... 298.15 K
Pressure            ... 1.00 atm
Total Mass          ... 187.03 AMU

Throughout the following assumptions are being made:
  (1) The electronic state is orbitally nondegenerate
  (2) There are no thermally accessible electronically excited states
  (3) Hindered rotations indicated by low frequency modes are not
      treated as such but are treated as vibrations and this may
      cause some error
  (4) All equations used are the standard statistical mechanics
      equations for an ideal gas
  (5) All vibrations are strictly harmonic

freq.      73.78  E(vib)   ...       0.49 
freq.     134.34  E(vib)   ...       0.42 
freq.     178.51  E(vib)   ...       0.37 
freq.     229.62  E(vib)   ...       0.32 
freq.     260.68  E(vib)   ...       0.30 
freq.     311.87  E(vib)   ...       0.25 
freq.     318.03  E(vib)   ...       0.25 
freq.     418.07  E(vib)   ...       0.18 
freq.     483.59  E(vib)   ...       0.15 
freq.     505.53  E(vib)   ...       0.14 
freq.     602.06  E(vib)   ...       0.10 
freq.     635.45  E(vib)   ...       0.09 
freq.     695.62  E(vib)   ...       0.07 
freq.     793.95  E(vib)   ...       0.05 
freq.     804.79  E(vib)   ...       0.05 
freq.     821.62  E(vib)   ...       0.05 
freq.     931.83  E(vib)   ...       0.03 
freq.     949.89  E(vib)   ...       0.03 
freq.     999.36  E(vib)   ...       0.02 
freq.    1049.62  E(vib)   ...       0.02 
freq.    1075.09  E(vib)   ...       0.02 
freq.    1119.69  E(vib)   ...       0.01 
freq.    1168.35  E(vib)   ...       0.01 
freq.    1179.65  E(vib)   ...       0.01 
freq.    1206.32  E(vib)   ...       0.01 
freq.    1298.55  E(vib)   ...       0.01 
freq.    1307.59  E(vib)   ...       0.01 
freq.    1358.11  E(vib)   ...       0.01 
freq.    1434.43  E(vib)   ...       0.00 
freq.    1468.39  E(vib)   ...       0.00 
freq.    1490.19  E(vib)   ...       0.00 
freq.    1500.05  E(vib)   ...       0.00 
freq.    1514.37  E(vib)   ...       0.00 
freq.    1604.49  E(vib)   ...       0.00 
freq.    1631.83  E(vib)   ...       0.00 
freq.    2989.36  E(vib)   ...       0.00 
freq.    3071.18  E(vib)   ...       0.00 
freq.    3117.97  E(vib)   ...       0.00 
freq.    3146.90  E(vib)   ...       0.00 
freq.    3150.48  E(vib)   ...       0.00 
freq.    3157.44  E(vib)   ...       0.00 
freq.    3170.48  E(vib)   ...       0.00 

------------
INNER ENERGY
------------

The inner energy is: U= E(el) + E(ZPE) + E(vib) + E(rot) + E(trans)
    E(el)   - is the total energy from the electronic structure calculation
              = E(kin-el) + E(nuc-el) + E(el-el) + E(nuc-nuc)
    E(ZPE)  - the the zero temperature vibrational energy from the frequency calculation
    E(vib)  - the the finite temperature correction to E(ZPE) due to population
              of excited vibrational states
    E(rot)  - is the rotational thermal energy
    E(trans)- is the translational thermal energy

Summary of contributions to the inner energy U:
Electronic energy                ...  -2920.72308767 Eh
Zero point energy                ...      0.12156097 Eh      76.28 kcal/mol
Thermal vibrational correction   ...      0.00556427 Eh       3.49 kcal/mol
Thermal rotational correction    ...      0.00141627 Eh       0.89 kcal/mol
Thermal translational correction ...      0.00141627 Eh       0.89 kcal/mol
-----------------------------------------------------------------------
Total thermal energy                  -2920.59312989 Eh


Summary of corrections to the electronic energy:
(perhaps to be used in another calculation)
Total thermal correction                  0.00839681 Eh       5.27 kcal/mol
Non-thermal (ZPE) correction              0.12156097 Eh      76.28 kcal/mol
-----------------------------------------------------------------------
Total correction                          0.12995778 Eh      81.55 kcal/mol


--------
ENTHALPY
--------

The enthalpy is H = U + kB*T
                kB is Boltzmann's constant
Total free energy                 ...  -2920.59312989 Eh 
Thermal Enthalpy correction       ...      0.00094421 Eh       0.59 kcal/mol
-----------------------------------------------------------------------
Total Enthalpy                    ...  -2920.59218568 Eh


Note: Rotational entropy computed according to Herzberg 
Infrared and Raman Spectra, Chapter V,1, Van Nostrand Reinhold, 1945 
Point Group:  Cs, Symmetry Number:   1  
Rotational constants in cm-1:     0.159598     0.015085     0.013819 

Vibrational entropy computed according to the QRRHO of S. Grimme
Chem.Eur.J. 2012 18 9955


-------
ENTROPY
-------

The entropy contributions are T*S = T*(S(el)+S(vib)+S(rot)+S(trans))
     S(el)   - electronic entropy
     S(vib)  - vibrational entropy
     S(rot)  - rotational entropy
     S(trans)- translational entropy
The entropies will be listed as multiplied by the temperature to get
units of energy

Electronic entropy                ...      0.00000000 Eh      0.00 kcal/mol
Vibrational entropy               ...      0.00929496 Eh      5.83 kcal/mol
Rotational entropy                ...      0.01437847 Eh      9.02 kcal/mol
Translational entropy             ...      0.01975798 Eh     12.40 kcal/mol
-----------------------------------------------------------------------
Final entropy term                ...      0.04343142 Eh     27.25 kcal/mol

In case the symmetry of your molecule has not been determined correctly
or in case you have a reason to use a different symmetry number we print 
out the resulting rotational entropy values for sn=1,12 :
 --------------------------------------------------------
|  sn= 1 | S(rot)=       0.01437847 Eh      9.02 kcal/mol|
|  sn= 2 | S(rot)=       0.01372402 Eh      8.61 kcal/mol|
|  sn= 3 | S(rot)=       0.01334119 Eh      8.37 kcal/mol|
|  sn= 4 | S(rot)=       0.01306956 Eh      8.20 kcal/mol|
|  sn= 5 | S(rot)=       0.01285887 Eh      8.07 kcal/mol|
|  sn= 6 | S(rot)=       0.01268673 Eh      7.96 kcal/mol|
|  sn= 7 | S(rot)=       0.01254118 Eh      7.87 kcal/mol|
|  sn= 8 | S(rot)=       0.01241511 Eh      7.79 kcal/mol|
|  sn= 9 | S(rot)=       0.01230390 Eh      7.72 kcal/mol|
|  sn=10 | S(rot)=       0.01220442 Eh      7.66 kcal/mol|
|  sn=11 | S(rot)=       0.01211443 Eh      7.60 kcal/mol|
|  sn=12 | S(rot)=       0.01203227 Eh      7.55 kcal/mol|
 --------------------------------------------------------


-------------------
GIBBS FREE ENERGY
-------------------

The Gibbs free energy is G = H - T*S

Total enthalpy                    ...  -2920.59218568 Eh 
Total entropy correction          ...     -0.04343142 Eh    -27.25 kcal/mol
-----------------------------------------------------------------------
Final Gibbs free energy         ...  -2920.63561710 Eh

For completeness - the Gibbs free energy minus the electronic energy
G-E(el)                           ...      0.08747057 Eh     54.89 kcal/mol


Timings for individual modules:

Sum of individual times         ...       70.112 sec (=   1.169 min)
GTO integral calculation        ...        5.099 sec (=   0.085 min)   7.3 %
SCF iterations                  ...       31.832 sec (=   0.531 min)  45.4 %
SCF Gradient evaluation         ...        4.800 sec (=   0.080 min)   6.8 %
Geometry relaxation             ...        0.142 sec (=   0.002 min)   0.2 %
Analytical frequency calculation...       28.239 sec (=   0.471 min)  40.3 %
                             ****ORCA TERMINATED NORMALLY****
TOTAL RUN TIME: 0 days 0 hours 1 minutes 38 seconds 573 msec
