10
	Energy:      39.3022829
C         -0.15238       -0.24829        0.00465
O         -1.37754       -0.76107       -0.00352
O          0.80546       -1.16833       -0.00689
C         -1.29628       -2.13545       -0.01403
C          0.23410       -2.42071       -0.03420
O          0.07133        0.95079        0.01838
H         -1.79359       -2.54040       -0.92124
H         -1.76878       -2.54070        0.90638
H          0.53305       -2.94215       -0.96866
H          0.54769       -3.00405        0.85790
