14
	Energy:       5.3061134
C          0.35043       -3.26332        0.21711
O          1.06770       -4.30082       -0.28536
O         -0.29560       -3.39668        1.24919
C          0.36411       -1.94698       -0.51558
C         -0.48258       -0.86825        0.16032
C          1.12483       -5.54207        0.31317
H          1.77332       -6.20814       -0.29213
H          0.10870       -5.98806        0.36999
H          1.55537       -5.45599        1.33392
H         -1.54471       -1.18932        0.21596
H         -0.42674        0.07142       -0.42867
H         -0.10476       -0.66691        1.18555
H          1.41366       -1.58873       -0.58052
H         -0.01963       -2.10993       -1.54531
