77
backward IRC, step 0
 Br  0.56877751  2.98801969 -0.61299144
  C -2.73151702 -0.28590168 -1.77146745
  C -4.66754444 -1.32722266 -0.72246508
  C  2.64162699 -2.76672513 -0.81011341
  C  0.37531462 -1.98774368 -1.13292445
  C -3.82094816 -2.10413897  0.03221967
  C  0.02518018 -3.28511642 -1.50604882
  C -1.85213722 -1.11215353 -0.98423464
  C  2.25932681 -4.05517079 -1.13442666
  C -2.21410760  0.61174022 -2.71893812
  C -4.13867042 -0.39418030 -1.63394722
  C  1.73380389 -1.70638300 -0.83197720
  C -2.43151029 -2.01045706 -0.06103438
  C  0.95138651 -4.31097127 -1.50901771
  C -5.21322708  0.52462137  2.24625213
  C -3.19038181  1.68670843  0.64819646
  C -2.93484219  1.08348275  1.87732910
  C -3.03784728  1.39793940 -3.48539967
  C -4.96130935  0.44291165 -2.41686809
  C -2.14714391  2.15557673 -0.13415726
  C -1.61616433  1.00885030  2.34086859
  C -0.83816431  2.00051639  0.30147605
  C -0.57344196  1.49057166  1.57874448
  C -1.90003075 -4.16891616  1.05428597
  C -1.61206506 -2.82043362  0.85191374
  C -4.42513017  1.32043177 -3.32091502
  C  3.33790845  0.05623390 -0.67763609
  C  4.10168132 -0.29197788 -1.80947607
  C  2.17265121  0.62953347  3.52596954
  C  2.72250310  0.33579194  2.29093238
  C  2.08169955  1.94509820  3.95840789
  C  3.20789112  1.35291444  1.46567172
  C  3.87903021  1.02847159  0.20131024
  C -1.13570598 -4.93879511  1.91046462
  C  5.31305115  0.30347807 -2.06949093
  C -0.54282690 -2.26358109  1.55339786
  C  2.54262451  2.96424292  3.14028586
  C  3.10318892  2.67184761  1.90955576
  C  5.09409211  1.63075699 -0.09493166
  C  5.82054138  1.27682407 -1.21676540
  C -0.06855796 -4.37595186  2.58813885
  C  0.21961772 -3.03316106  2.40791348
 Cu  0.45811067  0.56074185 -0.53245712
  H -1.13773396  0.67273155 -2.82474574
  H -5.77501403 -0.00480642  3.01678156
  H -5.74221642 -1.43230345 -0.63330504
  H  3.66488770 -2.56769952 -0.51593130
  H -0.99597363 -3.48039929 -1.80757782
  H -4.23916336 -2.79020359  0.75938542
  H  2.98655925 -4.85704020 -1.10044966
  H -5.64051557  1.52679939  2.11121818
  H -2.71709025 -4.62413855  0.51045504
  H -4.19564175  1.80021019  0.27695308
  H -2.35550455  2.62998935 -1.08035911
  H -1.43066187  0.56902460  3.31209911
  H  0.64825546 -5.30963353 -1.79710547
  H -2.62107858  2.08198257 -4.21263026
  H  3.69859737 -1.02585522 -2.49393361
  H -5.26778896 -0.02971557  1.30162600
  H -6.03547781  0.37550646 -2.29058993
  H  0.43451589  1.46649846  1.96502282
  H  1.80706416 -0.16966021  4.15743112
  H  2.79154876 -0.68879271  1.95751469
  H -5.07153212  1.95303855 -3.91645257
  H  1.64618200  2.17335208  4.92238111
  H -1.36752684 -5.98807539  2.04202056
  H -0.30849861 -1.21676132  1.42533367
  H  5.87108228  0.01830535 -2.95334721
  H  2.46168015  3.99377280  3.46355208
  H  3.44819048  3.47287022  1.27091488
  H  5.49578630  2.36335431  0.59459397
  H  6.77333581  1.74535472 -1.42289315
  H  0.53738943 -4.98082440  3.24913727
  H  1.05049938 -2.58404044  2.93395383
  N -0.52304068 -0.94481760 -1.17499128
  N  2.08190810 -0.42777805 -0.45325844
  O -3.88896197  0.58736214  2.71840043
77
backward IRC, step 1
 Br  0.57037133  2.98700630 -0.61312116
  C -2.73265605 -0.28964194 -1.77403095
  C -4.66809172 -1.32854817 -0.72277143
  C  2.64016072 -2.76456423 -0.80935319
  C  0.37366700 -1.98700824 -1.13303783
  C -3.82176191 -2.10494440  0.03143922
  C  0.02387526 -3.28404161 -1.50629244
  C -1.85372272 -1.11320812 -0.98523114
  C  2.25848245 -4.05268784 -1.13454789
  C -2.21554227  0.60632728 -2.72389792
  C -4.13986344 -0.39616053 -1.63482735
  C  1.73122348 -1.70588799 -0.83182870
  C -2.43178541 -2.01040411 -0.06184079
  C  0.95104594 -4.30874790 -1.50948644
  C -5.21055526  0.52601745  2.24452220
  C -3.18695181  1.69023217  0.65097846
  C -2.93205165  1.08462107  1.87756331
  C -3.03951203  1.39414719 -3.48725841
  C -4.96270750  0.44079189 -2.41743378
  C -2.14439334  2.14874200 -0.13304795
  C -1.61554223  1.01476263  2.34172729
  C -0.83039536  1.97148401  0.29169536
  C -0.57126774  1.48590103  1.57636616
  C -1.90050401 -4.16926507  1.05308786
  C -1.61290938 -2.82081486  0.85139738
  C -4.42703639  1.31824592 -3.32097894
  C  3.33300919  0.05940646 -0.67814534
  C  4.09645041 -0.28923015 -1.80898123
  C  2.17486074  0.62856650  3.52682663
  C  2.72408622  0.33519718  2.29227171
  C  2.08352350  1.94387710  3.95878038
  C  3.20750069  1.35272677  1.46720859
  C  3.87608439  1.02856680  0.20178361
  C -1.13636766 -4.93910546  1.90932390
  C  5.30891709  0.30465819 -2.06887577
  C -0.54468481 -2.26398133  1.55402970
  C  2.54380012  2.96323913  3.14126103
  C  3.10359337  2.67144873  1.91084753
  C  5.09171834  1.63003628 -0.09438709
  C  5.81719359  1.27692226 -1.21653784
  C -0.06942451 -4.37649526  2.58741749
  C  0.21828011 -3.03368195  2.40815009
 Cu  0.46123756  0.56781667 -0.52831635
  H -1.13963969  0.66311970 -2.83416658
  H -5.77234585 -0.00301261  3.01402363
  H -5.74277146 -1.43260304 -0.63247050
  H  3.66302213 -2.56475302 -0.51516629
  H -0.99680095 -3.48014820 -1.80806503
  H -4.23930754 -2.79101341  0.75892318
  H  2.98591206 -4.85398335 -1.10100540
  H -5.63801600  1.52683199  2.10981909
  H -2.71714344 -4.62462371  0.50881702
  H -4.19301984  1.81127356  0.28404998
  H -2.35154800  2.62699177 -1.07673550
  H -1.43206512  0.58881326  3.31633543
  H  0.64860545 -5.30720034 -1.79804180
  H -2.62305727  2.07758496 -4.21488088
  H  3.69260276 -1.02192783 -2.49385318
  H -5.26610924 -0.02745452  1.30090898
  H -6.03678492  0.37340857 -2.29046587
  H  0.43383053  1.47553362  1.96486358
  H  1.80976063 -0.17079964  4.15788835
  H  2.79292694 -0.68931381  1.95886844
  H -5.07329750  1.95169747 -3.91554972
  H  1.64810115  2.17180979  4.92223656
  H -1.36798930 -5.98836714  2.04061225
  H -0.31144163 -1.21696328  1.42773689
  H  5.86609994  0.01914758 -2.95272540
  H  2.46250734  3.99254551  3.46434893
  H  3.44672413  3.47245302  1.27179447
  H  5.49393131  2.36147835  0.59543738
  H  6.76989561  1.74522613 -1.42295821
  H  0.53655255 -4.98153808  3.24815097
  H  1.04865897 -2.58444165  2.93472408
  N -0.52306956 -0.94164783 -1.17327160
  N  2.07446575 -0.42500393 -0.45566967
  O -3.88668041  0.58900057  2.71597839
77
backward IRC, step 2
 Br  0.57149111  2.98677076 -0.61338727
  C -2.73322233 -0.29069768 -1.77490664
  C -4.66844644 -1.32915759 -0.72289553
  C  2.63959348 -2.76347970 -0.80919470
  C  0.37297832 -1.98619118 -1.13290060
  C -3.82198778 -2.10545443  0.03119955
  C  0.02326779 -3.28318589 -1.50644256
  C -1.85420100 -1.11318277 -0.98533970
  C  2.25804091 -4.05161853 -1.13452675
  C -2.21622478  0.60433332 -2.72581512
  C -4.14039859 -0.39703247 -1.63529916
  C  1.73041979 -1.70509939 -0.83180918
  C -2.43199541 -2.01051747 -0.06208034
  C  0.95067718 -4.30771649 -1.50969052
  C -5.20984604  0.52670481  2.24393889
  C -3.18577120  1.69002172  0.65093925
  C -2.93137007  1.08548003  1.87826290
  C -3.04032464  1.39238421 -3.48871769
  C -4.96337194  0.44005156 -2.41762505
  C -2.14278731  2.14393491 -0.13484752
  C -1.61514118  1.01647063  2.34319267
  C -0.82867136  1.96396151  0.28932556
  C -0.57043519  1.48405767  1.57621958
  C -1.90062328 -4.16947210  1.05250242
  C -1.61317660 -2.82092990  0.85125884
  C -4.42780188  1.31736462 -3.32133110
  C  3.33173680  0.06037915 -0.67850977
  C  4.09461875 -0.28820199 -1.80960116
  C  2.17569875  0.62809653  3.52762638
  C  2.72445606  0.33488478  2.29281557
  C  2.08428294  1.94338229  3.95961419
  C  3.20711181  1.35263731  1.46762876
  C  3.87517060  1.02881756  0.20181177
  C -1.13658239 -4.93940197  1.90874563
  C  5.30737391  0.30518649 -2.06930200
  C -0.54535463 -2.26402670  1.55438868
  C  2.54411034  2.96291828  3.14205255
  C  3.10339312  2.67131674  1.91136901
  C  5.09099665  1.62990022 -0.09420045
  C  5.81610662  1.27686000 -1.21659922
  C -0.06983324 -4.37678823  2.58713969
  C  0.21763907 -3.03386438  2.40836898
 Cu  0.46204525  0.57006693 -0.52683228
  H -1.14040146  0.66046359 -2.83683965
  H -5.77196747 -0.00319550  3.01208969
  H -5.74310236 -1.43305194 -0.63219930
  H  3.66240221 -2.56350180 -0.51495077
  H -0.99732195 -3.47947599 -1.80835458
  H -4.23933522 -2.79152081  0.75877979
  H  2.98551290 -4.85285961 -1.10095530
  H -5.63775573  1.52696374  2.10991499
  H -2.71704985 -4.62482018  0.50790199
  H -4.19175768  1.81308755  0.28466697
  H -2.34937050  2.62159316 -1.07858149
  H -1.43240344  0.59342346  3.31715918
  H  0.64841443 -5.30615831 -1.79844695
  H -2.62406641  2.07542201 -4.21683256
  H  3.69028885 -1.02045738 -2.49464284
  H -5.26444527 -0.02565253  1.30007329
  H -6.03740469  0.37305422 -2.29010923
  H  0.43351345  1.47489613  1.96427478
  H  1.81098522 -0.17132503  4.15879999
  H  2.79336843 -0.68957478  1.95928545
  H -5.07408909  1.95124644 -3.91541111
  H  1.64910584  2.17118269  4.92316708
  H -1.36809657 -5.98871857  2.03976926
  H -0.31245425 -1.21689140  1.42862456
  H  5.86438541  0.01978205 -2.95327961
  H  2.46278627  3.99215621  3.46526103
  H  3.44607408  3.47235755  1.27214659
  H  5.49360081  2.36087259  0.59586973
  H  6.76899814  1.74480139 -1.42294221
  H  0.53613758 -4.98191274  3.24780678
  H  1.04779957 -2.58461374  2.93527200
  N -0.52332005 -0.94043510 -1.17222583
  N  2.07308558 -0.42397962 -0.45600398
  O -3.88647380  0.59020953  2.71652130
