77
forward IRC, step 0
 Br  0.30170319  2.86975637 -0.58129440
  C -2.61755036 -0.17712606 -1.70815877
  C -4.56330690 -1.22763536 -0.68029838
  C  2.68463527 -2.89387199 -0.80787557
  C  0.44963082 -2.02715272 -1.14081285
  C -3.72201520 -2.01495601  0.06725693
  C  0.04702996 -3.31260810 -1.49601632
  C -1.74080452 -1.05055285 -0.96355064
  C  2.24968525 -4.16759339 -1.12116860
  C -2.10251582  0.75874768 -2.61767056
  C -4.02639870 -0.27753604 -1.56782992
  C  1.82225433 -1.79610740 -0.84451342
  C -2.33243355 -1.93819768 -0.03425030
  C  0.93241333 -4.37417715 -1.49300143
  C -5.44637316  0.46595109  2.30277247
  C -3.47611633  1.84493547  0.81978656
  C -3.18625625  1.09733471  1.95755638
  C -2.92347868  1.57788778 -3.35246589
  C -4.84675593  0.58274603 -2.32661901
  C -2.45239479  2.42745603  0.08547538
  C -1.85542901  0.95140822  2.36445507
  C -1.15252513  2.26419027  0.50616663
  C -0.83581404  1.52335916  1.63723834
  C -1.84427061 -4.10386394  1.08676117
  C -1.52496402 -2.76407244  0.87254256
  C -4.31108183  1.49045491 -3.20025586
  C  3.48327371 -0.06463524 -0.67731579
  C  4.29175176 -0.44263716 -1.76859311
  C  2.07950093  0.67192543  3.41921666
  C  2.69908922  0.33460438  2.22987726
  C  1.97696307  2.00115852  3.80538711
  C  3.24329972  1.31950734  1.40112276
  C  3.97919439  0.94997043  0.18628250
  C -1.09532960 -4.88530069  1.94531238
  C  5.49675297  0.17134269 -2.01304059
  C -0.43776642 -2.22792965  1.56315916
  C  2.49562977  2.98883590  2.98384356
  C  3.12309758  2.65264871  1.79746718
  C  5.19210177  1.56231313 -0.09291330
  C  5.95886006  1.18387409 -1.18013596
  C -0.01249572 -4.34284618  2.61473983
  C  0.30850840 -3.00912302  2.42141722
 Cu  0.71196303  0.55219915 -0.79732592
  H -1.02500236  0.82125343 -2.72764478
  H -5.98359463 -0.15234638  3.02265294
  H -5.63915618 -1.33289411 -0.60127692
  H  3.71457338 -2.73361644 -0.51301672
  H -0.98209991 -3.47040343 -1.79262588
  H -4.14397648 -2.70256479  0.79090806
  H  2.94394715 -4.99821758 -1.08153954
  H -5.88547111  1.47183709  2.28954098
  H -2.67365351 -4.54412619  0.54927808
  H -4.48819909  1.96640147  0.47056124
  H -2.67827461  2.98505595 -0.81048259
  H -1.64369983  0.35671064  3.24313263
  H  0.58976516 -5.36238683 -1.77285051
  H -2.50258990  2.29090721 -4.04893712
  H  3.92368841 -1.20595228 -2.44078759
  H -5.51589320  0.01728195  1.30577310
  H -5.92143215  0.50967502 -2.20494705
  H  0.19285245  1.38547806  1.93950178
  H  1.66869488 -0.10399087  4.05240922
  H  2.77903176 -0.70108643  1.93613647
  H -4.95678190  2.14101289 -3.77724407
  H  1.48723260  2.26356484  4.73423585
  H -1.35087356 -5.92808113  2.08547968
  H -0.17597699 -1.18946828  1.42019343
  H  6.08734772 -0.13113113 -2.86988337
  H  2.40651425  4.02906522  3.26917052
  H  3.51057752  3.43187082  1.15606772
  H  5.56019786  2.32673021  0.58085953
  H  6.90817747  1.66433912 -1.37484017
  H  0.58153783 -4.95674800  3.27838515
  H  1.15353732 -2.57822294  2.94051883
  N -0.41337932 -0.94737686 -1.19818174
  N  2.22155804 -0.53187241 -0.47992054
  O -4.11048431  0.49213240  2.74761611
77
forward IRC, step 1
 Br  0.30283491  2.87089813 -0.58252969
  C -2.61464994 -0.17650458 -1.70812441
  C -4.56101466 -1.22644634 -0.67998334
  C  2.68502487 -2.89441884 -0.80786486
  C  0.44986369 -2.02741099 -1.14020222
  C -3.71925544 -2.01399979  0.06687283
  C  0.04701187 -3.31254803 -1.49544210
  C -1.73691402 -1.04921809 -0.96429844
  C  2.24939699 -4.16824687 -1.12053312
  C -2.10086821  0.75749558 -2.61945778
  C -4.02353402 -0.27616730 -1.56704091
  C  1.82265580 -1.79741353 -0.84512069
  C -2.32962676 -1.93705376 -0.03512190
  C  0.93225314 -4.37430319 -1.49204699
  C -5.45021815  0.46609139  2.30286475
  C -3.47805500  1.84927572  0.82639711
  C -3.18947645  1.09888739  1.96046998
  C -2.92207431  1.57829954 -3.35184241
  C -4.84470733  0.58409075 -2.32501760
  C -2.45275934  2.41836838  0.08815659
  C -1.86053762  0.95482684  2.36910732
  C -1.14826673  2.23234137  0.49424936
  C -0.83892908  1.51643032  1.63833263
  C -1.84336046 -4.10305981  1.08683034
  C -1.52337936 -2.76347571  0.87245464
  C -4.30944801  1.49249701 -3.19800801
  C  3.48298017 -0.06468903 -0.67801756
  C  4.29285510 -0.44365453 -1.76719654
  C  2.07926698  0.67209976  3.41700372
  C  2.69958070  0.33441791  2.22901310
  C  1.97660163  2.00130929  3.80232204
  C  3.24378100  1.31877804  1.40060987
  C  3.97911217  0.94857905  0.18618059
  C -1.09483493 -4.88466339  1.94572221
  C  5.49839760  0.16970410 -2.01135096
  C -0.43660714 -2.22760327  1.56361124
  C  2.49574474  2.98856119  2.98125423
  C  3.12364598  2.65185886  1.79605324
  C  5.19251660  1.56051494 -0.09237096
  C  5.95977369  1.18253284 -1.17911806
  C -0.01186818 -4.34252811  2.61504961
  C  0.30933568 -3.00899393  2.42179154
 Cu  0.70773982  0.55720451 -0.79565254
  H -1.02392034  0.81648544 -2.73401037
  H -5.98752254 -0.15336987  3.02025824
  H -5.63672014 -1.33093853 -0.59991874
  H  3.71508808 -2.73450092 -0.51390710
  H -0.98187443 -3.47040883 -1.79233853
  H -4.14077169 -2.70173636  0.79057365
  H  2.94329706 -4.99889269 -1.08081335
  H -5.88967098  1.47036320  2.29179549
  H -2.67268089 -4.54307937  0.54919640
  H -4.49105658  1.98117213  0.48347161
  H -2.67697206  2.97807080 -0.80549580
  H -1.65133173  0.36916914  3.25021335
  H  0.58930279 -5.36221984 -1.77192621
  H -2.50146933  2.29073751 -4.04866719
  H  3.92500376 -1.20670286 -2.43942286
  H -5.52020495  0.02046852  1.30598164
  H -5.91922131  0.51061909 -2.20282490
  H  0.18781584  1.38493415  1.94215957
  H  1.66799329 -0.10356130  4.04965132
  H  2.77902901 -0.70123781  1.93564167
  H -4.95533187  2.14376689 -3.77379520
  H  1.48625455  2.26401806  4.73001648
  H -1.35092986 -5.92717824  2.08610251
  H -0.17541814 -1.18913702  1.42131366
  H  6.08938183 -0.13325785 -2.86746036
  H  2.40649340  4.02877229  3.26567348
  H  3.51136758  3.43089805  1.15495930
  H  5.56029608  2.32476792  0.58133098
  H  6.90888137  1.66348062 -1.37365070
  H  0.58188878 -4.95649019  3.27883758
  H  1.15416514 -2.57823391  2.94118823
  N -0.41045756 -0.94680276 -1.19839377
  N  2.21842630 -0.53009513 -0.48621470
  O -4.11493747  0.49208359  2.74760314
77
forward IRC, step 2
 Br  0.30283789  2.87090658 -0.58254863
  C -2.61458911 -0.17648737 -1.70814524
  C -4.56093685 -1.22640679 -0.67996062
  C  2.68503076 -2.89440385 -0.80786787
  C  0.44988126 -2.02740993 -1.14022608
  C -3.71918406 -2.01397455  0.06687698
  C  0.04700897 -3.31254981 -1.49542548
  C -1.73687251 -1.04920239 -0.96430704
  C  2.24939359 -4.16823954 -1.12049849
  C -2.10080844  0.75748722 -2.61951804
  C -4.02346349 -0.27612459 -1.56702076
  C  1.82266855 -1.79738460 -0.84516337
  C -2.32955815 -1.93703405 -0.03512495
  C  0.93224381 -4.37430922 -1.49201458
  C -5.45033188  0.46612472  2.30287067
  C -3.47811490  1.84928242  0.82653844
  C -3.18959933  1.09891396  1.96060928
  C -2.92201437  1.57832013 -3.35185002
  C -4.84464038  0.58415595 -2.32495722
  C -2.45267473  2.41813635  0.08807893
  C -1.86064423  0.95474347  2.36916626
  C -1.14817896  2.23181613  0.49418471
  C -0.83902022  1.51621206  1.63814332
  C -1.84332201 -4.10303412  1.08683046
  C -1.52331940 -2.76345695  0.87245204
  C -4.30938734  1.49256648 -3.19794532
  C  3.48297301 -0.06469748 -0.67806982
  C  4.29289103 -0.44369874 -1.76719356
  C  2.07924670  0.67210340  3.41695179
  C  2.69957385  0.33440074  2.22898575
  C  1.97657461  2.00131759  3.80224179
  C  3.24378008  1.31875665  1.40057526
  C  3.97912060  0.94855385  0.18615125
  C -1.09481825 -4.88464253  1.94573282
  C  5.49845600  0.16963952 -2.01130767
  C -0.43655401 -2.22759209  1.56362623
  C  2.49573985  2.98856030  2.98118209
  C  3.12366048  2.65184270  1.79600204
  C  5.19254114  1.56046922 -0.09235505
  C  5.95981766  1.18247764 -1.17908172
  C -0.01184878 -4.34251986  2.61506621
  C  0.30937206 -3.00898799  2.42181441
 Cu  0.70763918  0.55732041 -0.79560890
  H -1.02386334  0.81646045 -2.73412183
  H -5.98783699 -0.15348877  3.02022683
  H -5.63664144 -1.33088399 -0.59987534
  H  3.71509529 -2.73449274 -0.51390886
  H -0.98188046 -3.47041091 -1.79231253
  H -4.14070350 -2.70171282  0.79057605
  H  2.94329414 -4.99888528 -1.08075195
  H -5.88993728  1.47039991  2.29180112
  H -2.67264140 -4.54304329  0.54918611
  H -4.49117291  1.98142211  0.48367641
  H -2.67684480  2.97782827 -0.80562618
  H -1.65164162  0.36962936  3.25102115
  H  0.58929735 -5.36223296 -1.77187100
  H -2.50142118  2.29074016 -4.04869397
  H  3.92505156 -1.20675465 -2.43942525
  H -5.52026621  0.02053425  1.30587970
  H -5.91915136  0.51070635 -2.20272606
  H  0.18799113  1.38502052  1.94231606
  H  1.66796963 -0.10355208  4.04961491
  H  2.77903530 -0.70125441  1.93562024
  H -4.95527908  2.14387407 -3.77369349
  H  1.48620933  2.26403941  4.72994503
  H -1.35092704 -5.92715515  2.08611450
  H -0.17535117 -1.18912713  1.42132096
  H  6.08947065 -0.13334989 -2.86739570
  H  2.40648686  4.02877705  3.26558975
  H  3.51139594  3.43087628  1.15490011
  H  5.56031721  2.32469993  0.58136515
  H  6.90893516  1.66341320 -1.37358874
  H  0.58189876 -4.95648826  3.27885787
  H  1.15420050 -2.57823824  2.94122186
  N -0.41041989 -0.94678945 -1.19841650
  N  2.21841090 -0.53004850 -0.48632468
  O -4.11507755  0.49212090  2.74767605
