22
	Energy:      78.3874080
C          6.14100        2.94863       -0.57727
C          7.11391        2.25030        0.41572
C          6.49216        0.92637        0.92683
H          7.29396        2.89786        1.30206
H          8.09353        2.09247       -0.08547
C          6.03717        0.10134       -0.30269
C          4.87175        0.82960       -1.03122
H          5.71181       -0.92591       -0.02980
H          6.91529        0.00249       -0.97863
C          4.74389        2.28290       -0.50883
H          3.90640        0.31694       -0.82419
H          5.04361        0.78422       -2.12843
H          6.10398        4.03556       -0.34704
C          5.23858        1.26921        1.77067
H          7.22862        0.35412        1.53176
C          4.30818        2.22982        0.97688
H          5.49342        1.73332        2.74790
H          4.71296        0.31223        1.98462
H          4.38505        3.26379        1.38055
H          3.25328        1.90296        1.10236
H          4.00680        2.85483       -1.11329
H          6.50969        2.84241       -1.62141
