12
	Energy:      10.5447326
C          0.12873       -0.24883       -0.00000
C         -1.12866        0.36457        0.00000
C         -1.22614        1.76020       -0.00000
C         -0.06624        2.54245       -0.00000
C          1.19118        1.92906        0.00000
C          1.28866        0.53340       -0.00000
H          2.26142        0.05884        0.00000
H          0.20412       -1.32854        0.00000
H         -2.02601       -0.24058        0.00000
H         -2.19892        2.23471        0.00000
H         -0.14170        3.62216       -0.00000
H          2.08854        2.53422       -0.00000
