20
	Energy:      16.4678776
N         -0.38094       -4.89287        0.50525	
C          0.93743       -5.17609       -0.07282
C         -1.19356       -4.24694       -0.53200
C         -2.50818       -4.99609       -0.78637
C          1.96605       -4.18144        0.46403
H          2.05862       -4.27631        1.56735
H          1.66223       -3.14450        0.21689
H          2.95669       -4.36863       -0.00128
C          1.38587       -6.61843        0.19265
H          2.37021       -6.80439       -0.28602
H          0.65037       -7.32646       -0.24427
H          1.46988       -6.80808        1.28447
C         -1.46046       -2.79047       -0.15731
H         -2.29200       -6.04076       -1.09474
H         -3.07556       -4.50323       -1.60356
H         -3.13364       -5.01082        0.13216
H         -0.84021       -5.76405        0.86285
H         -2.03694       -2.29039       -0.96398
H         -0.50289       -2.24614       -0.03234
H         -2.03438       -2.73166        0.79177
