17
	Energy:       9.3719745
S         -0.50371       -5.05532        0.95984
C          0.93753       -5.22349        0.21363
C         -1.25289       -4.24297       -0.48547
C          1.93749       -4.13934        0.49634
H          2.28774       -4.20854        1.54805
H          1.48148       -3.14032        0.33010
H          2.80922       -4.23671       -0.18415
C          1.47941       -6.62264        0.16327
H          2.36161       -6.66611       -0.50990
H          0.71068       -7.32219       -0.22818
H          1.78664       -6.94878        1.17996
O         -1.41156       -2.87970       -0.23390
C         -2.58353       -4.88083       -0.85286
H         -2.43718       -5.95681       -1.08218
H         -3.00138       -4.37824       -1.75033
H         -3.30332       -4.77826       -0.01290
H         -0.82913       -2.43433       -0.90012
