14
	Energy:      33.6302151
C         -0.12966        0.20751        0.00000
C         -1.39952        0.76466        0.00000
C          1.09618        0.85789       -0.00000
C         -1.75101        2.10709        0.00000
C         -0.92482        3.22578       -0.00000
C          1.35990        2.22336        0.00000
C          0.46985        3.29962        0.00000
O          0.96003        4.41685        0.00000
H         -2.81557        2.31120       -0.00000
H         -1.44800        4.17697        0.00000
H         -0.08954       -0.87558       -0.00000
H         -2.22367        0.06077       -0.00000
H          1.96723        0.21275        0.00000
H          2.41411        2.48247        0.00000
