18
	Energy:      29.5253356
C         -0.37133        0.64791       -0.65499
C          2.03693        0.19428       -0.85455
C          1.17366        0.96245        1.27533
N         -0.92974       -0.52414        0.04955
N          1.00504        1.00699       -0.19246
C         -0.33615       -1.76869       -0.41583
N         -1.28354        1.78312       -0.46477
H         -1.94633       -0.59817       -0.18667
H          1.19693        1.98752       -0.50810
H         -0.35951        0.45121       -1.75534
H         -0.95469        2.60860       -1.01665
H         -1.35285        2.04556        0.54333
H          2.05361       -0.85275       -0.49530
H          3.04677        0.63168       -0.69137
H          0.30230       -2.19344        0.38654
H          0.44558        1.62542        1.78535
H          1.05202       -0.06978        1.67072
H          2.18816        1.31524        1.56391
