19
	Energy:     184.4197310
C          3.00122        1.20283       -0.34426
C         -2.46391       -0.14205       -0.86995
C         -1.87690       -1.51332        1.23014
C          1.64612        0.60306       -0.02094
C         -1.43575       -0.56971        0.14333
N          0.45276        0.74684       -0.79177
C          1.03004       -0.41303        0.98086
C         -0.15988       -0.13121        0.09878
H          0.01680        1.67591       -0.87319
H          0.44288        0.43534       -1.77466
H          2.91781        2.30933       -0.32964
H          3.72838        0.88760        0.43307
H          3.35445        0.86433       -1.33920
H         -2.05321        0.55313       -1.63042
H         -3.30557        0.36385       -0.35160
H         -2.85602       -1.03938       -1.39391
H         -1.05334       -1.76699        1.93049
H         -2.69462       -1.04415        1.81676
H         -2.24915       -2.45452        0.77598
