16
backward IRC, step 0
  C  0.66430502 -1.45091077 -0.47733164
  C -0.67120820 -1.45540280 -0.45343989
  H  1.24379178 -1.94674554  0.28317315
  H  1.20733168 -1.11401565 -1.34373945
  H -1.21977839 -1.95500753  0.32726028
  H -1.24713230 -1.12226272 -1.29982465
  C -1.44023954  0.55208131  0.61734085
  C -0.72086466  1.41084225 -0.12537376
  C  0.70649650  1.41559132 -0.15087195
  C  1.45763015  0.56170889  0.56556332
  H -1.02439507  0.05582796  1.47539029
  H -2.51140375  0.49462439  0.51670806
  H -1.22070703  2.00744909 -0.87742247
  H  1.17517834  2.01542161 -0.92022327
  H  2.52487543  0.51136510  0.42673025
  H  1.07600608  0.06280938  1.43786444
16
backward IRC, step 1
  C  0.66382161 -1.46633416 -0.48515615
  C -0.67090247 -1.47082019 -0.46127738
  H  1.24343434 -1.95610299  0.27817875
  H  1.20715535 -1.12186517 -1.34739701
  H -1.21953767 -1.96436065  0.32225442
  H -1.24703592 -1.13010441 -1.30348404
  C -1.44596005  0.56603515  0.62535579
  C -0.72189998  1.41150678 -0.12560267
  C  0.70751764  1.41626249 -0.15113826
  C  1.46354155  0.57570425  0.57337246
  H -1.02959587  0.05982157  1.47597407
  H -2.51764946  0.51503759  0.52739119
  H -1.21973087  2.00947434 -0.87785937
  H  1.17417383  2.01743723 -0.92062616
  H  2.53136436  0.53182559  0.43718957
  H  1.08120025  0.06684308  1.43826503
16
backward IRC, step 2
  C  0.66214651 -1.48309267 -0.49359540
  C -0.66941884 -1.48756580 -0.46977211
  H  1.24352641 -1.96353478  0.27440941
  H  1.20743075 -1.12780727 -1.35025605
  H -1.21971559 -1.97179270  0.31848970
  H -1.24737406 -1.13604603 -1.30633122
  C -1.45174864  0.58130061  0.63360542
  C -0.72346756  1.41211087 -0.12542439
  C  0.70908631  1.41687688 -0.15101626
  C  1.46952012  0.59101141  0.58141349
  H -1.03356490  0.06178739  1.47525625
  H -2.52376534  0.53540624  0.53808902
  H -1.21867132  2.01068795 -0.87901333
  H  1.17306509  2.01864290 -0.92174237
  H  2.53772328  0.55223783  0.44766515
  H  1.08512885  0.06883703  1.43740750
16
backward IRC, step 3
  C  0.66072745 -1.49958115 -0.50186442
  C -0.66818663 -1.50404401 -0.47808782
  H  1.24357232 -1.97183079  0.27025553
  H  1.20765022 -1.13465201 -1.35352650
  H -1.21985505 -1.98008981  0.31433870
  H -1.24766498 -1.14289137 -1.30959205
  C -1.45726274  0.59619183  0.64166922
  C -0.72486703  1.41287163 -0.12524561
  C  0.71048608  1.41764691 -0.15088762
  C  1.47521996  0.60594184  0.58927817
  H -1.03779330  0.06459130  1.47519491
  H -2.52962379  0.55584321  0.54875953
  H -1.21760419  2.01217521 -0.87996360
  H  1.17195439  2.02012241 -0.92265441
  H  2.54382326  0.57271568  0.45812227
  H  1.08933402  0.07167032  1.43719652
16
backward IRC, step 4
  C  0.65958630 -1.51564918 -0.50988802
  C -0.66722607 -1.52010415 -0.48614846
  H  1.24354514 -1.98104423  0.26567777
  H  1.20780266 -1.14247336 -1.35723847
  H -1.21993020 -1.98930411  0.30976153
  H -1.24789822 -1.15071346 -1.31329668
  C -1.46240737  0.61055005  0.64946892
  C -0.72605595  1.41380273 -0.12506639
  C  0.71167430  1.41858587 -0.15075099
  C  1.48054456  0.62033632  0.59689184
  H -1.04226450  0.06832762  1.47589773
  H -2.53513060  0.57632098  0.55933862
  H -1.21653789  2.01393523 -0.88068400
  H  1.17085109  2.02187482 -0.92333655
  H  2.54956830  0.59323173  0.46850074
  H  1.09380271  0.07543760  1.43774059
16
backward IRC, step 5
  C  0.65865010 -1.53136147 -0.51769421
  C -0.66646493 -1.53581002 -0.49398445
  H  1.24347134 -1.99099103  0.26077885
  H  1.20791059 -1.15110682 -1.36131733
  H -1.21996527 -1.99925118  0.30486194
  H -1.24809471 -1.15934733 -1.31736952
  C -1.46717043  0.62443270  0.65700971
  C -0.72707255  1.41491110 -0.12485906
  C  0.71269017  1.41970099 -0.15058006
  C  1.48548173  0.63425257  0.60426025
  H -1.04685190  0.07289396  1.47729438
  H -2.54024708  0.59668969  0.56975840
  H -1.21547893  2.01586671 -0.88125621
  H  1.16975940  2.02379885 -0.92387068
  H  2.55491830  0.61363642  0.47873430
  H  1.09840683  0.08003575  1.43897394
16
backward IRC, step 6
  C  0.65786628 -1.54690854 -0.52537304
  C -0.66585261 -1.55135179 -0.50168771
  H  1.24336584 -2.00162052  0.25559120
  H  1.20798581 -1.16050967 -1.36574213
  H -1.21997436 -2.00988071  0.29967270
  H -1.24826580 -1.16875047 -1.32178933
  C -1.47158661  0.63800151  0.66436666
  C -0.72795286  1.41622282 -0.12460310
  C  0.71357021  1.42101857 -0.15035558
  C  1.49006776  0.64785260  0.61145726
  H -1.05148643  0.07827496  1.47934721
  H -2.54498939  0.61696323  0.58003799
  H -1.21442731  2.01790561 -0.88175621
  H  1.16867694  2.02583045 -0.92433277
  H  2.55989001  0.63394348  0.48884110
  H  1.10307606  0.08544878  1.44086140
16
backward IRC, step 7
  C  0.65720737 -1.56224443 -0.53289728
  C -0.66536100 -1.56668330 -0.50923203
  H  1.24323970 -2.01276169  0.25020446
  H  1.20803495 -1.17053465 -1.37044088
  H -1.21996646 -2.02102176  0.29428380
  H -1.24841649 -1.17877572 -1.32648391
  C -1.47562457  0.65120740  0.67150583
  C -0.72871252  1.41774938 -0.12428598
  C  0.71433047  1.42255023 -0.15006562
  C  1.49427043  0.66108710  0.61845005
  H -1.05604203  0.08440020  1.48200295
  H -2.54930937  0.63686904  0.59005387
  H -1.21340125  2.01997684 -0.88223821
  H  1.16762048  2.02789461 -0.92477771
  H  2.56443267  0.65388003  0.49869941
  H  1.10768299  0.09160547  1.44335422
16
backward IRC, step 8
  C  0.65664396 -1.57754898 -0.54035018
  C -0.66496247 -1.58198417 -0.51670163
  H  1.24309872 -2.02443465  0.24461451
  H  1.20806303 -1.18120553 -1.37541963
  H -1.21994745 -2.03269449  0.28869129
  H -1.24855184 -1.18944683 -1.33145913
  C -1.47931627  0.66419416  0.67850128
  C -0.72937488  1.41952606 -0.12389469
  C  0.71499449  1.42433138 -0.14969799
  C  1.49812336  0.67410008  0.62531151
  H -1.06047114  0.09129961  1.48525098
  H -2.55323436  0.65645296  0.59984615
  H -1.21240553  2.02205453 -0.88275029
  H  1.16659327  2.02996548 -0.92525373
  H  2.56857474  0.67349203  0.50834836
  H  1.11217954  0.09853554  1.44644354
16
backward IRC, step 9
  C  0.65615954 -1.59281869 -0.54772422
  C -0.66464031 -1.59725082 -0.52408964
  H  1.24294858 -2.03654839  0.23887147
  H  1.20807357 -1.19244340 -1.38063537
  H -1.21992177 -2.04480792  0.28294546
  H -1.24867439 -1.20068489 -1.33667187
  C -1.48264639  0.67694625  0.68534201
  C -0.72995124  1.42157109 -0.12342209
  C  0.71557369  1.42638033 -0.14924597
  C  1.50161096  0.68687595  0.63203120
  H -1.06467920  0.09893363  1.48905051
  H -2.55674586  0.67554488  0.60934991
  H -1.21145845  2.02410430 -0.88332184
  H  1.16561274  2.03200881 -0.92579086
  H  2.57229656  0.69260929  0.51772368
  H  1.11646999  0.10619876  1.45009197
