16
forward IRC, step 0
  C  0.67968268 -1.37409775 -0.43818122
  C -0.68568862 -1.37869362 -0.41375941
  H  1.24025512 -1.94222478  0.28516535
  H  1.20366594 -1.11357717 -1.34218063
  H -1.21620157 -1.95045377  0.32913194
  H -1.24342066 -1.12180318 -1.29839891
  C -1.41218926  0.47943347  0.58031187
  C -0.70924274  1.41083831 -0.12830960
  C  0.69477844  1.41551032 -0.15339115
  C  1.42875791  0.48886671  0.52954690
  H -1.01773813  0.06598014  1.49190449
  H -2.48455955  0.42423871  0.47886186
  H -1.22596663  2.01543843 -0.86198833
  H  1.18093812  2.02345025 -0.90498133
  H  2.49716557  0.44080146  0.38986085
  H  1.06987728  0.07291622  1.45460378
16
forward IRC, step 1
  C  0.68630419 -1.35558906 -0.42876495
  C -0.69209382 -1.36022701 -0.40411041
  H  1.23783255 -1.94799617  0.28136576
  H  1.20137678 -1.11979355 -1.34412257
  H -1.21388220 -1.95620400  0.32524713
  H -1.24115664 -1.12799974 -1.30042324
  C -1.40584407  0.46118326  0.57217714
  C -0.70523963  1.41151731 -0.12997758
  C  0.69071314  1.41616304 -0.15491475
  C  1.42224955  0.47057409  0.52164175
  H -1.01974744  0.07294578  1.49786571
  H -2.47923202  0.41285574  0.47272037
  H -1.22759384  2.02131353 -0.85502143
  H  1.18277116  2.02933499 -0.89807855
  H  2.49170056  0.42938824  0.38391575
  H  1.07205439  0.07989922  1.46049038
16
forward IRC, step 2
  C  0.69276065 -1.33718753 -0.41931081
  C -0.69833164 -1.34186709 -0.39443024
  H  1.23534917 -1.95393571  0.27743498
  H  1.19911285 -1.12588537 -1.34595625
  H -1.21150405 -1.96212440  0.32122934
  H -1.23891782 -1.13407665 -1.30233969
  C -1.39962930  0.44300142  0.56401548
  C -0.70142810  1.41218344 -0.13168919
  C  0.68683841  1.41680381 -0.15648906
  C  1.41586927  0.45235067  0.51370459
  H -1.02153438  0.07992926  1.50389911
  H -2.47399776  0.40166204  0.46663499
  H -1.22937505  2.02763261 -0.84765540
  H  1.18477153  2.03566667 -0.89078055
  H  2.48632805  0.41816245  0.37802056
  H  1.07401069  0.08689542  1.46645636
16
forward IRC, step 3
  C  0.69954161 -1.31893613 -0.40988545
  C -0.70489376 -1.32365969 -0.38476722
  H  1.23242405 -1.96006958  0.27307806
  H  1.19645152 -1.13208625 -1.34754008
  H -1.20869790 -1.96823688  0.31677008
  H -1.23627246 -1.14026091 -1.30402059
  C -1.39357730  0.42483443  0.55599550
  C -0.69763076  1.41289830 -0.13354626
  C  0.68297245  1.41749332 -0.15820928
  C  1.40965650  0.43414317  0.50590321
  H -1.02371828  0.08708794  1.50949106
  H -2.46895371  0.39100091  0.46083996
  H -1.23129940  2.03458279 -0.83957727
  H  1.18693655  2.04263071 -0.88277562
  H  2.48115222  0.40746985  0.37240851
  H  1.07634628  0.09406867  1.47196661
16
forward IRC, step 4
  C  0.70656998 -1.30098396 -0.40056709
  C -0.71170504 -1.30575304 -0.37520214
  H  1.22904945 -1.96630877  0.26831574
  H  1.19338510 -1.13830475 -1.34884389
  H -1.20545610 -1.97445210  0.31188973
  H -1.23321222 -1.14646055 -1.30543594
  C -1.38774517  0.40684216  0.54818524
  C -0.69392745  1.41362600 -0.13554224
  C  0.67919544  1.41819625 -0.16007170
  C  1.40366985  0.41611209  0.49830376
  H -1.02634123  0.09442018  1.51460584
  H -2.46414224  0.38097196  0.45535561
  H -1.23339018  2.04217127 -0.83073397
  H  1.18929107  2.05023424 -0.87401178
  H  2.47621571  0.39741076  0.36709871
  H  1.07910213  0.10141805  1.47698423
16
forward IRC, step 5
  C  0.71372820 -1.28325150 -0.39130660
  C -0.71864682 -1.28806669 -0.36569005
  H  1.22523764 -1.97235006  0.26328753
  H  1.18992591 -1.14424201 -1.34972584
  H -1.20178810 -1.98046678  0.30672812
  H -1.22974629 -1.15237656 -1.30644353
  C -1.38208473  0.38898412  0.54050804
  C -0.69038733  1.41431018 -0.13765559
  C  0.67557763  1.41885667 -0.16205727
  C  1.39785876  0.39821674  0.49083134
  H -1.02933554  0.10178142  1.51913976
  H -2.45949436  0.37134062  0.45002072
  H -1.23567716  2.05037485 -0.82104336
  H  1.19186788  2.05845424 -0.86440809
  H  2.47144540  0.38775036  0.36193254
  H  1.08220796  0.10879862  1.48140808
16
forward IRC, step 6
  C  0.72091745 -1.26560030 -0.38202166
  C -0.72561821 -1.27046183 -0.35615240
  H  1.22101700 -1.97783771  0.25816362
  H  1.18609627 -1.14955284 -1.35001907
  H -1.19771863 -1.98592527  0.30145637
  H -1.22589334 -1.15766374 -1.30687577
  C -1.37651755  0.37116646  0.53284658
  C -0.68707472  1.41488742 -0.13985800
  C  0.67218474  1.41941164 -0.16414000
  C  1.39214116  0.38036240  0.48337135
  H -1.03262243  0.10898291  1.52293959
  H -2.45491962  0.36187114  0.44467368
  H -1.23818155  2.05914214 -0.81043151
  H  1.19469113  2.06723946 -0.85389148
  H  2.46674666  0.37825233  0.35675172
  H  1.08558087  0.11602116  1.48508782
16
forward IRC, step 7
  C  0.72802912 -1.24794015 -0.37265771
  C -0.73250914 -1.25284790 -0.34653876
  H  1.21647638 -1.98236100  0.25317565
  H  1.18196493 -1.15385176 -1.34956072
  H -1.19333093 -1.99041752  0.29630922
  H -1.22171880 -1.16193698 -1.30656754
  C -1.37096458  0.35335248  0.52508648
  C -0.68406265  1.41528538 -0.14209243
  C  0.66909227  1.41978931 -0.16626548
  C  1.38643403  0.36251146  0.47581208
  H -1.03607309  0.11574670  1.52581203
  H -2.45033572  0.35246027  0.43923312
  H -1.24088596  2.06828417 -0.79896758
  H  1.19774225  2.07640079 -0.84253048
  H  2.46203486  0.36881276  0.35147779
  H  1.08908706  0.12280691  1.48783481
16
forward IRC, step 8
  C  0.73496763 -1.23019354 -0.36317254
  C -0.73922328 -1.23514633 -0.33681013
  H  1.21171512 -1.98560749  0.24854090
  H  1.17760253 -1.15684068 -1.34825779
  H -1.18871856 -1.99363165  0.29150730
  H -1.21729190 -1.16489854 -1.30542319
  C -1.36536159  0.33551957  0.51713579
  C -0.68138544  1.41544334 -0.14431181
  C  0.66633661  1.41992917 -0.16838794
  C  1.38067024  0.34464127  0.46806411
  H -1.03955227  0.12183108  1.52764174
  H -2.44567312  0.34299103  0.43361473
  H -1.24377203  2.07761243 -0.78672551
  H  1.20100149  2.08574957 -0.83039837
  H  2.45723841  0.35931412  0.34602891
  H  1.09258891  0.12891329  1.48953873
16
forward IRC, step 9
  C  0.74158874 -1.21247323 -0.35362628
  C -0.74561810 -1.21746841 -0.32703149
  H  1.20682927 -1.98741501  0.24443769
  H  1.17307633 -1.15833271 -1.34611687
  H -1.18397224 -1.99540590  0.28723223
  H -1.21268139 -1.16636184 -1.30344675
  C -1.35974362  0.31782670  0.50903237
  C -0.67905467  1.41532029 -0.14649453
  C  0.66393032  1.41979029 -0.17048616
  C  1.37488531  0.32691158  0.46016438
  H -1.04296121  0.12707028  1.52841007
  H -2.44094565  0.33332308  0.42771412
  H -1.24682807  2.08700866 -0.77371445
  H  1.20445757  2.09516750 -0.81750387
  H  2.45236854  0.34961627  0.34030028
  H  1.09598817  0.13417394  1.49018457
16
forward IRC, step 10
  C  0.74778420 -1.19486004 -0.34406231
  C -0.75158646 -1.19989423 -0.31725005
  H  1.20188780 -1.98773533  0.24098806
  H  1.16842438 -1.15822934 -1.34319314
  H -1.17915701 -1.99569239  0.28360850
  H -1.20792803 -1.16622849 -1.30069198
  C -1.35415392  0.30039720  0.50081592
  C -0.67705879  1.41488307 -0.14864081
  C  0.66186212  1.41933947 -0.17255997
  C  1.36912310  0.30944604  0.45215103
  H -1.04625741  0.13138332  1.52816072
  H -2.43618223  0.32330175  0.42140843
  H -1.25005799  2.09644442 -0.75984771
  H  1.20811766  2.10462629 -0.80376054
  H  2.44745085  0.33956489  0.33416816
  H  1.09924453  0.13850769  1.48981759
16
forward IRC, step 11
  C  0.75343708 -1.17751876 -0.33457200
  C -0.75701363 -1.18258791 -0.30756139
  H  1.19698339 -1.98658453  0.23829730
  H  1.16369941 -1.15650368 -1.33958694
  H -1.17436166 -1.99450772  0.28074469
  H -1.20308839 -1.16447187 -1.29725725
  C -1.34866683  0.28343665  0.49256672
  C -0.67538709  1.41410457 -0.15073865
  C  0.66012192  1.41854954 -0.17459700
  C  1.36345936  0.29245065  0.44410164
  H -1.04940899  0.13470809  1.52697121
  H -2.43144778  0.31289097  0.41464067
  H -1.25343531  2.10583820 -0.74512522
  H  1.21195581  2.11404424 -0.78916734
  H  2.44254839  0.32912440  0.32757330
  H  1.10232937  0.14185232  1.48851636
16
forward IRC, step 12
  C  0.75844964 -1.16061825 -0.32525200
  C -0.76180425 -1.16571771 -0.29806563
  H  1.19219756 -1.98406121  0.23642021
  H  1.15893774 -1.15322563 -1.33543422
  H -1.16966512 -1.99195098  0.27869850
  H -1.19820322 -1.16116204 -1.29327714
  C -1.34336529  0.26715037  0.48437313
  C -0.67401497  1.41296682 -0.15277722
  C  0.65868564  1.41740241 -0.17658555
  C  1.35797875  0.27613123  0.43610155
  H -1.05241836  0.13704540  1.52496486
  H -2.42682123  0.30211346  0.40738388
  H -1.25691684  2.11510901 -0.72956053
  H  1.21592892  2.12334015 -0.77373625
  H  2.43773894  0.31831810  0.32048599
  H  1.10524955  0.14420880  1.48640410
16
forward IRC, step 13
  C  0.76275892 -1.14424246 -0.31615299
  C -0.76589665 -1.14936721 -0.28881568
  H  1.18756466 -1.98031298  0.23535410
  H  1.15412356 -1.14852238 -1.33086909
  H -1.16510088 -1.98816998  0.27746845
  H -1.19326073 -1.15642607 -1.28888627
  C -1.33831738  0.25165952  0.47628759
  C -0.67290216  1.41144966 -0.15476024
  C  0.65751304  1.41587771 -0.17852788
  C  1.35275038  0.26060935  0.42820074
  H -1.05534990  0.13847201  1.52228785
  H -2.42237082  0.29096967  0.39957964
  H -1.26046717  2.12424719 -0.71306057
  H  1.22000498  2.13250415 -0.75737297
  H  2.43308860  0.30714697  0.31284541
  H  1.10807416  0.14565444  1.48362461
16
forward IRC, step 14
  C  0.76627174 -1.12858370 -0.30738380
  C -0.76920033 -1.13372820 -0.27992372
  H  1.18312213 -1.97555171  0.23506385
  H  1.14923845 -1.14259977 -1.32606029
  H -1.16070625 -1.98337682  0.27702081
  H -1.18824720 -1.15046969 -1.28425398
  C -1.33364237  0.23718906  0.46841728
  C -0.67201313  1.40953906 -0.15668268
  C  0.65656889  1.41396121 -0.18041772
  C  1.34789577  0.24611072  0.42050207
  H -1.05831171  0.13911535  1.51912383
  H -2.41820931  0.27955048  0.39120074
  H -1.26401827  2.13322377 -0.69557747
  H  1.22411795  2.14150690 -0.74002724
  H  2.42870848  0.29570261  0.30462034
  H  1.11091697  0.14631749  1.48035758
16
forward IRC, step 15
  C  0.76889608 -1.11380803 -0.29903303
  C -0.77162536 -1.11896622 -0.27148164
  H  1.17887069 -1.97001838  0.23547407
  H  1.14421798 -1.13569976 -1.32116758
  H -1.15648310 -1.97781249  0.27728020
  H -1.18310239 -1.14353449 -1.27954236
  C -1.32948049  0.22394168  0.46085266
  C -0.67131045  1.40721059 -0.15854534
  C  0.65581594  1.41162829 -0.18225451
  C  1.34355690  0.23283886  0.41309092
  H -1.06151005  0.13917340  1.51566958
  H -2.41446473  0.26794456  0.38216028
  H -1.26748995  2.14208122 -0.67695103
  H  1.22819306  2.15039042 -0.72153606
  H  2.42472281  0.28407455  0.29571938
  H  1.11398992  0.14639738  1.47679229
16
forward IRC, step 16
  C  0.77051960 -1.10008268 -0.29117519
  C -0.77306102 -1.10524794 -0.26356807
  H  1.17478035 -1.96397387  0.23648434
  H  1.13894546 -1.12809136 -1.31633852
  H -1.15240342 -1.97173780  0.27814513
  H -1.17771321 -1.13588880 -1.27490316
  C -1.32603358  0.21213400  0.45366724
  C -0.67076075  1.40441623 -0.16034685
  C  0.65522124  1.40883078 -0.18403568
  C  1.33993666  0.22101163  0.40603350
  H -1.06532296  0.13892134  1.51213362
  H -2.41131187  0.25625013  0.37224670
  H -1.27076064  2.15094819 -0.65686341
  H  1.23211930  2.15928272 -0.70157743
  H  2.42129807  0.27236206  0.28592478
  H  1.11767644  0.14617186  1.47312360
16
forward IRC, step 17
  C  0.77099363 -1.08773807 -0.28394124
  C -0.77336119 -1.09290308 -0.25631940
  H  1.17083740 -1.95778623  0.23796478
  H  1.13329374 -1.12019478 -1.31175960
  H -1.14845577 -1.96552092  0.27948517
  H -1.17195646 -1.12795216 -1.27052753
  C -1.32368803  0.20214378  0.44696842
  C -0.67034229  1.40110312 -0.16204411
  C  0.65476497  1.40551583 -0.18571731
  C  1.33742242  0.21100912  0.39942325
  H -1.07046401  0.13876718  1.50879276
  H -2.40907446  0.24473717  0.36107071
  H -1.27355437  2.15997994 -0.63499159
  H  1.23563135  2.16833743 -0.67981863
  H  2.41874202  0.26083702  0.27483582
  H  1.12269696  0.14605373  1.46960266
16
forward IRC, step 18
  C  0.77025831 -1.07750265 -0.27759947
  C -0.77247076 -1.08266021 -0.25000628
  H  1.16715369 -1.95212881  0.23974595
  H  1.12728248 -1.11295655 -1.30774673
  H -1.14475340 -1.95983651  0.28113458
  H -1.16585666 -1.12067162 -1.26673093
  C -1.32324011  0.19464630  0.44092376
  C -0.67005054  1.39733643 -0.16343539
  C  0.65444947  1.40174873 -0.18709756
  C  1.33681128  0.20351159  0.39339902
  H -1.07836755  0.13939490  1.50612948
  H -2.40841113  0.23421738  0.34794053
  H -1.27517418  2.16912428 -0.61163698
  H  1.23802225  2.17749789 -0.65653586
  H  2.41768255  0.25031484  0.26173722
  H  1.13049783  0.14673647  1.46666028
