
                                 *****************
                                 * O   R   C   A *
                                 *****************

                                            #,                                       
                                            ###                                      
                                            ####                                     
                                            #####                                    
                                            ######                                   
                                           ########,                                 
                                     ,,################,,,,,                         
                               ,,#################################,,                 
                          ,,##########################################,,             
                       ,#########################################, ''#####,          
                    ,#############################################,,   '####,        
                  ,##################################################,,,,####,       
                ,###########''''           ''''###############################       
              ,#####''   ,,,,##########,,,,          '''####'''          '####       
            ,##' ,,,,###########################,,,                        '##       
           ' ,,###''''                  '''############,,,                           
         ,,##''                                '''############,,,,        ,,,,,,###''
      ,#''                                            '''#######################'''  
     '                                                          ''''####''''         
             ,#######,   #######,   ,#######,      ##                                
            ,#'     '#,  ##    ##  ,#'     '#,    #''#        ######   ,####,        
            ##       ##  ##   ,#'  ##            #'  '#       #        #'  '#        
            ##       ##  #######   ##           ,######,      #####,   #    #        
            '#,     ,#'  ##    ##  '#,     ,#' ,#      #,         ##   #,  ,#        
             '#######'   ##     ##  '#######'  #'      '#     #####' # '####'        



                  #######################################################
                  #                        -***-                        #
                  #          Department of theory and spectroscopy      #
                  #    Directorship and core code : Frank Neese         #
                  #        Max Planck Institute fuer Kohlenforschung    #
                  #                Kaiser Wilhelm Platz 1               #
                  #                 D-45470 Muelheim/Ruhr               #
                  #                      Germany                        #
                  #                                                     #
                  #                  All rights reserved                #
                  #                        -***-                        #
                  #######################################################


                         Program Version 5.0.1 -  RELEASE  -


 With contributions from (in alphabetic order):
   Daniel Aravena         : Magnetic Suceptibility
   Michael Atanasov       : Ab Initio Ligand Field Theory (pilot matlab implementation)
   Alexander A. Auer      : GIAO ZORA, VPT2 properties, NMR spectrum
   Ute Becker             : Parallelization
   Giovanni Bistoni       : ED, misc. LED, open-shell LED, HFLD
   Martin Brehm           : Molecular dynamics
   Dmytro Bykov           : SCF Hessian
   Vijay G. Chilkuri      : MRCI spin determinant printing, contributions to CSF-ICE
   Dipayan Datta          : RHF DLPNO-CCSD density
   Achintya Kumar Dutta   : EOM-CC, STEOM-CC
   Dmitry Ganyushin       : Spin-Orbit,Spin-Spin,Magnetic field MRCI
   Miquel Garcia          : C-PCM and meta-GGA Hessian, CC/C-PCM, Gaussian charge scheme
   Yang Guo               : DLPNO-NEVPT2, F12-NEVPT2, CIM, IAO-localization
   Andreas Hansen         : Spin unrestricted coupled pair/coupled cluster methods
   Benjamin Helmich-Paris : MC-RPA, TRAH-SCF, COSX integrals
   Lee Huntington         : MR-EOM, pCC
   Robert Izsak           : Overlap fitted RIJCOSX, COSX-SCS-MP3, EOM
   Marcus Kettner         : VPT2
   Christian Kollmar      : KDIIS, OOCD, Brueckner-CCSD(T), CCSD density, CASPT2, CASPT2-K
   Simone Kossmann        : Meta GGA functionals, TD-DFT gradient, OOMP2, MP2 Hessian
   Martin Krupicka        : Initial AUTO-CI
   Lucas Lang             : DCDCAS
   Marvin Lechner         : AUTO-CI (C++ implementation), FIC-MRCC
   Dagmar Lenk            : GEPOL surface, SMD
   Dimitrios Liakos       : Extrapolation schemes; Compound Job, initial MDCI parallelization
   Dimitrios Manganas     : Further ROCIS development; embedding schemes
   Dimitrios Pantazis     : SARC Basis sets
   Anastasios Papadopoulos: AUTO-CI, single reference methods and gradients
   Taras Petrenko         : DFT Hessian,TD-DFT gradient, ASA, ECA, R-Raman, ABS, FL, XAS/XES, NRVS
   Peter Pinski           : DLPNO-MP2, DLPNO-MP2 Gradient
   Christoph Reimann      : Effective Core Potentials
   Marius Retegan         : Local ZFS, SOC
   Christoph Riplinger    : Optimizer, TS searches, QM/MM, DLPNO-CCSD(T), (RO)-DLPNO pert. Triples
   Tobias Risthaus        : Range-separated hybrids, TD-DFT gradient, RPA, STAB
   Michael Roemelt        : Original ROCIS implementation
   Masaaki Saitow         : Open-shell DLPNO-CCSD energy and density
   Barbara Sandhoefer     : DKH picture change effects
   Avijit Sen             : IP-ROCIS
   Kantharuban Sivalingam : CASSCF convergence, NEVPT2, FIC-MRCI
   Bernardo de Souza      : ESD, SOC TD-DFT
   Georgi Stoychev        : AutoAux, RI-MP2 NMR, DLPNO-MP2 response
   Willem Van den Heuvel  : Paramagnetic NMR
   Boris Wezisla          : Elementary symmetry handling
   Frank Wennmohs         : Technical directorship


 We gratefully acknowledge several colleagues who have allowed us to
 interface, adapt or use parts of their codes:
   Stefan Grimme, W. Hujo, H. Kruse, P. Pracht,  : VdW corrections, initial TS optimization,
                  C. Bannwarth, S. Ehlert          DFT functionals, gCP, sTDA/sTD-DF
   Ed Valeev, F. Pavosevic, A. Kumar             : LibInt (2-el integral package), F12 methods
   Garnet Chan, S. Sharma, J. Yang, R. Olivares  : DMRG
   Ulf Ekstrom                                   : XCFun DFT Library
   Mihaly Kallay                                 : mrcc  (arbitrary order and MRCC methods)
   Jiri Pittner, Ondrej Demel                    : Mk-CCSD
   Frank Weinhold                                : gennbo (NPA and NBO analysis)
   Christopher J. Cramer and Donald G. Truhlar   : smd solvation model
   Lars Goerigk                                  : TD-DFT with DH, B97 family of functionals
   V. Asgeirsson, H. Jonsson                     : NEB implementation
   FAccTs GmbH                                   : IRC, NEB, NEB-TS, DLPNO-Multilevel, CI-OPT
                                                   MM, QMMM, 2- and 3-layer-ONIOM, Crystal-QMMM,
                                                   LR-CPCM, SF, NACMEs, symmetry and pop. for TD-DFT,
                                                   nearIR, NL-DFT gradient (VV10), updates on ESD,
                                                   ML-optimized integration grids
   S Lehtola, MJT Oliveira, MAL Marques          : LibXC Library
   Liviu Ungur et al                             : ANISO software


 Your calculation uses the libint2 library for the computation of 2-el integrals
 For citations please refer to: http://libint.valeyev.net

 Your ORCA version has been built with support for libXC version: 5.1.0
 For citations please refer to: https://tddft.org/programs/libxc/

 This ORCA versions uses:
   CBLAS   interface :  Fast vector & matrix operations
   LAPACKE interface :  Fast linear algebra routines
   SCALAPACK package :  Parallel linear algebra routines
   Shared memory     :  Shared parallel matrices
   BLAS/LAPACK       :  OpenBLAS 0.3.15  USE64BITINT DYNAMIC_ARCH NO_AFFINITY Zen SINGLE_THREADED
        Core in use  :  Zen
   Copyright (c) 2011-2014, The OpenBLAS Project




***************************************
The coordinates will be read from file: /scratch/negishi/li1724/Test-CentralizedCode-4-5/DFT/FBGRMGAZGXUGPH-UHFFFAOYSA-M/FBGRMGAZGXUGPH-UHFFFAOYSA-M-FullTZ.xyz
***************************************


Your calculation utilizes the atom-pairwise dispersion correction
with the Becke-Johnson damping scheme (D3BJ)
Cite in your paper:
S.Grimme, S.Ehrlich, L.Goerigk, J Comput Chem, (2011), 32, 1456–1465 
S.Grimme, J.Antony, S.Ehrlich and H.Krieg, J.Chem.Phys., 132, (2010), 154104 
   

Your calculation employs the composite approach B97-3c by Grimme and coworkers.
For the correct reference, please check the publication list of the Grimme group:
http://www.thch.uni-bonn.de/tc/index.php?section=publikationen&subsection=grimme#2017
   

XCFun DFT library Copyright 2009-2010 Ulf Ekstrom and contributors.
See http://admol.org/xcfun for more information.
This is free software; see the source code for copying conditions.
There is ABSOLUTELY NO WARRANTY; not even for MERCHANTABILITY or FITNESS FOR A PARTICULAR PURPOSE.
For details see the documentation.
Scientific users of this library should cite U. Ekstrom, L. Visscher, R. Bast, A. J. Thorvaldsen and K. Ruud;
J.Chem.Theor.Comp. 2010, DOI: 10.1021/ct100117s
XCFun Version 0.99 

================================================================================

----- Orbital basis set information -----
Your calculation utilizes the basis: def2-mTZVP
----- AuxJ basis set information -----
Your calculation utilizes the basis: def2-mTZVP/J
================================================================================
                                        WARNINGS
                       Please study these warnings very carefully!
================================================================================

WARNING: Gradients needed for Numerical Frequencies
  ===> : Setting RunTyp to EnGrad

WARNING: The environment variable RSH_COMMAND is not set!
  ===> : All Displacements for the Numerical Hessian calculation
         will be started on localhost

INFO   : the flag for use of the SHARK integral package has been found!

================================================================================
                                       INPUT FILE
================================================================================
NAME = /scratch/negishi/li1724/Test-CentralizedCode-4-5/DFT/FBGRMGAZGXUGPH-UHFFFAOYSA-M/FBGRMGAZGXUGPH-UHFFFAOYSA-M-FullTZ.in
|  1> ! B97-3c def2-mTZVP CPCM(DMSO) defgrid2 NumFreq
|  2> 
|  3> %scf
|  4>   MaxIter 500
|  5> end
|  6> 
|  7> %pal
|  8>   nproc 32
|  9> end
| 10> 
| 11> %maxcore 7200
| 12> 
| 13> %base "FBGRMGAZGXUGPH-UHFFFAOYSA-M-FullTZ"
| 14> 
| 15> *xyzfile -1 1 /scratch/negishi/li1724/Test-CentralizedCode-4-5/DFT/FBGRMGAZGXUGPH-UHFFFAOYSA-M/FBGRMGAZGXUGPH-UHFFFAOYSA-M-FullTZ.xyz
| 16> 
| 17>                          ****END OF INPUT****
================================================================================

                     *******************************
                     * Energy+Gradient Calculation *
                     *******************************

---------------------------------
CARTESIAN COORDINATES (ANGSTROEM)
---------------------------------
  Br     1.444305   -2.123561   -2.040436
  C     -2.513305    0.275226    1.402337
  C     -4.358366    1.702708    0.649033
  C      3.102563    2.031668    1.590252
  C      0.698859    1.687716    1.243969
  C     -3.445545    2.562156    0.078463
  C      0.436489    2.801013    2.067780
  C     -1.582541    1.158878    0.763196
  C      2.819314    3.103436    2.435227
  C     -2.072308   -0.862784    2.121627
  C     -3.917999    0.538834    1.328881
  C      2.055628    1.351254    0.928750
  C     -2.046880    2.312446    0.111055
  C      1.487343    3.492045    2.669823
  C     -5.843154   -2.868994   -1.921073
  C     -3.149700   -2.350615   -1.209080
  C     -3.877391   -1.524332   -2.077483
  C     -2.974615   -1.717430    2.724083
  C     -4.825276   -0.366151    1.940040
  C     -1.837687   -2.001707   -0.862157
  C     -3.263886   -0.375557   -2.601523
  C     -1.243635   -0.840616   -1.339245
  C     -1.958304   -0.045060   -2.226684
  C     -0.098542    2.911312   -1.397110
  C     -1.158138    3.293588   -0.557909
  C     -4.365328   -1.475744    2.623591
  C      3.444947   -0.253230   -0.137234
  C      4.401367    0.229687   -1.041078
  C      1.292393   -1.853790    3.498306
  C      2.239992   -1.293769    2.639325
  C      0.806692   -3.144017    3.265858
  C      2.716331   -2.010976    1.530672
  C      3.711228   -1.438487    0.590230
  C      0.716432    3.863382   -2.007416
  C      5.609486   -0.440671   -1.238890
  C     -1.377719    4.668701   -0.359203
  C      1.291998   -3.870574    2.174655
  C      2.236396   -3.307642    1.326978
  C      4.918765   -2.114920    0.358065
  C      5.868275   -1.624877   -0.541092
  C      0.492495    5.227852   -1.793498
  C     -0.561882    5.625747   -0.966416
  Cu     0.499089   -0.402323   -0.585584
  H     -1.003427   -1.054903    2.183189
  H     -6.855834   -2.842129   -2.337236
  H     -5.427220    1.906987    0.579529
  H      4.133738    1.736525    1.399920
  H     -0.594591    3.073411    2.286319
  H     -3.801845    3.444050   -0.453758
  H      3.637897    3.644754    2.911648
  H     -5.362339   -3.816167   -2.206209
  H      0.106318    1.854840   -1.561849
  H     -3.586534   -3.256716   -0.793739
  H     -1.286830   -2.661552   -0.190862
  H     -3.823178    0.261005   -3.287374
  H      1.269139    4.320048    3.345302
  H     -2.613382   -2.588935    3.271493
  H      4.171433    1.136197   -1.601672
  H     -5.901887   -2.805352   -0.824464
  H     -5.894831   -0.164778    1.865647
  H     -1.523929    0.867806   -2.634866
  H      0.930876   -1.277975    4.351003
  H      2.615074   -0.289880    2.829710
  H     -5.072199   -2.162075    3.091262
  H      0.058597   -3.579133    3.929397
  H      1.533561    3.535722   -2.651500
  H     -2.181107    4.991455    0.303349
  H      6.340802   -0.046127   -1.945587
  H      0.927541   -4.878930    1.977026
  H      2.593622   -3.868813    0.466732
  H      5.115962   -3.037775    0.905538
  H      6.803401   -2.164068   -0.694895
  H      1.134437    5.972716   -2.265331
  H     -0.746459    6.685227   -0.784797
  N     -0.235340    0.784954    0.811855
  N      2.202295    0.396835   -0.025987
  O     -5.160190   -1.754431   -2.466546

----------------------------
CARTESIAN COORDINATES (A.U.)
----------------------------
  NO LB      ZA    FRAG     MASS         X           Y           Z
   0 Br   35.0000    0    79.900    2.729341   -4.012948   -3.855865
   1 C     6.0000    0    12.011   -4.749459    0.520102    2.650034
   2 C     6.0000    0    12.011   -8.236118    3.217652    1.226495
   3 C     6.0000    0    12.011    5.862994    3.839295    3.005142
   4 C     6.0000    0    12.011    1.320653    3.189322    2.350760
   5 C     6.0000    0    12.011   -6.511136    4.841773    0.148274
   6 C     6.0000    0    12.011    0.824844    5.293148    3.907538
   7 C     6.0000    0    12.011   -2.990570    2.189962    1.442232
   8 C     6.0000    0    12.011    5.327731    5.864644    4.601912
   9 C     6.0000    0    12.011   -3.916094   -1.630425    4.009294
  10 C     6.0000    0    12.011   -7.403946    1.018249    2.511220
  11 C     6.0000    0    12.011    3.884574    2.553501    1.755084
  12 C     6.0000    0    12.011   -3.868043    4.369889    0.209863
  13 C     6.0000    0    12.011    2.810672    6.599008    5.045235
  14 C     6.0000    0    12.011  -11.041962   -5.421614   -3.630302
  15 C     6.0000    0    12.011   -5.952071   -4.442019   -2.284830
  16 C     6.0000    0    12.011   -7.327206   -2.880571   -3.925874
  17 C     6.0000    0    12.011   -5.621208   -3.245473    5.147771
  18 C     6.0000    0    12.011   -9.118450   -0.691926    3.666144
  19 C     6.0000    0    12.011   -3.472725   -3.782677   -1.629240
  20 C     6.0000    0    12.011   -6.167852   -0.709700   -4.916165
  21 C     6.0000    0    12.011   -2.350130   -1.588534   -2.530805
  22 C     6.0000    0    12.011   -3.700658   -0.085151   -4.207822
  23 C     6.0000    0    12.011   -0.186217    5.501582   -2.640155
  24 C     6.0000    0    12.011   -2.188563    6.223979   -1.054295
  25 C     6.0000    0    12.011   -8.249274   -2.788751    4.957869
  26 C     6.0000    0    12.011    6.510006   -0.478535   -0.259334
  27 C     6.0000    0    12.011    8.317378    0.434045   -1.967353
  28 C     6.0000    0    12.011    2.442270   -3.503156    6.610841
  29 C     6.0000    0    12.011    4.232971   -2.444869    4.987602
  30 C     6.0000    0    12.011    1.524428   -5.941331    6.171578
  31 C     6.0000    0    12.011    5.133122   -3.800194    2.892552
  32 C     6.0000    0    12.011    7.013205   -2.718347    1.115374
  33 C     6.0000    0    12.011    1.353860    7.300733   -3.793466
  34 C     6.0000    0    12.011   10.600392   -0.832747   -2.341163
  35 C     6.0000    0    12.011   -2.603512    8.822567   -0.678795
  36 C     6.0000    0    12.011    2.441523   -7.314325    4.109501
  37 C     6.0000    0    12.011    4.226177   -6.250538    2.507625
  38 C     6.0000    0    12.011    9.295119   -3.996619    0.676645
  39 C     6.0000    0    12.011   11.089433   -3.070573   -1.022516
  40 C     6.0000    0    12.011    0.930681    9.879209   -3.389221
  41 C     6.0000    0    12.011   -1.061803   10.631122   -1.826262
  42 Cu   29.0000    0    63.550    0.943141   -0.760280   -1.106594
  43 H     1.0000    0     1.008   -1.896202   -1.993477    4.125629
  44 H     1.0000    0     1.008  -12.955648   -5.370845   -4.416737
  45 H     1.0000    0     1.008  -10.255960    3.603683    1.095150
  46 H     1.0000    0     1.008    7.811633    3.281556    2.645466
  47 H     1.0000    0     1.008   -1.123614    5.807905    4.320517
  48 H     1.0000    0     1.008   -7.184445    6.508312   -0.857479
  49 H     1.0000    0     1.008    6.874629    6.887587    5.502217
  50 H     1.0000    0     1.008  -10.133352   -7.211510   -4.169130
  51 H     1.0000    0     1.008    0.200913    3.505140   -2.951467
  52 H     1.0000    0     1.008   -6.777567   -6.154301   -1.499949
  53 H     1.0000    0     1.008   -2.431757   -5.029604   -0.360678
  54 H     1.0000    0     1.008   -7.224758    0.493228   -6.212236
  55 H     1.0000    0     1.008    2.398325    8.163708    6.321705
  56 H     1.0000    0     1.008   -4.938576   -4.892377    6.182226
  57 H     1.0000    0     1.008    7.882866    2.147102   -3.026721
  58 H     1.0000    0     1.008  -11.152951   -5.301347   -1.558012
  59 H     1.0000    0     1.008  -11.139616   -0.311386    3.525561
  60 H     1.0000    0     1.008   -2.879809    1.639916   -4.979175
  61 H     1.0000    0     1.008    1.759100   -2.415022    8.222204
  62 H     1.0000    0     1.008    4.941773   -0.547795    5.347376
  63 H     1.0000    0     1.008   -9.585068   -4.085730    5.841639
  64 H     1.0000    0     1.008    0.110732   -6.763582    7.425484
  65 H     1.0000    0     1.008    2.898010    6.681546   -5.010609
  66 H     1.0000    0     1.008   -4.121694    9.432484    0.573247
  67 H     1.0000    0     1.008   11.982378   -0.087167   -3.676627
  68 H     1.0000    0     1.008    1.752799   -9.219842    3.736038
  69 H     1.0000    0     1.008    4.901236   -7.310996    0.881996
  70 H     1.0000    0     1.008    9.667767   -5.740563    1.711219
  71 H     1.0000    0     1.008   12.856564   -4.089496   -1.313162
  72 H     1.0000    0     1.008    2.143776   11.286797   -4.280855
  73 H     1.0000    0     1.008   -1.410603   12.633248   -1.483051
  74 N     7.0000    0    14.007   -0.444727    1.483348    1.534183
  75 N     7.0000    0    14.007    4.161735    0.749909   -0.049109
  76 O     8.0000    0    15.999   -9.751346   -3.315394   -4.661096

--------------------------------
INTERNAL COORDINATES (ANGSTROEM)
--------------------------------
 Br     0   0   0     0.000000000000     0.00000000     0.00000000
 C      1   0   0     5.767975773652     0.00000000     0.00000000
 C      2   1   0     2.451411988227   125.11191899     0.00000000
 C      1   2   3     5.761739074953    61.40831969   111.69877152
 C      4   1   2     2.452754549025    61.82643092   347.53531146
 C      3   2   1     1.377477027740    89.53252862   302.35352691
 C      5   4   1     1.409586374495    89.37802914   184.14230796
 C      2   1   3     1.433758727981    62.92316912   291.68031664
 C      4   1   2     1.393879263033   151.40524862   342.52021993
 C      2   1   3     1.416659048787    75.84108225   154.75062580
 C      3   2   1     1.417997636860    30.79303196   122.63211682
 C      4   1   2     1.413018022326    31.18409982   344.49522254
 C      8   2   1     1.404142935556   119.91368387   132.19298003
 C      7   5   4     1.394373167374   120.23033796   358.25411867
 C     11   3   2     5.087407886597    97.23914780   246.89348826
 C     15  11   3     2.833786457788    50.00528958   117.12271916
 C     16  15  11     1.402283831184    57.24555640   283.50491603
 C     10   2   1     1.381134738614   121.01021417   225.99945668
 C     11   3   2     1.419741384919   122.08132149   179.77961640
 C     16  15  11     1.401239743299   176.12203211   317.22162400
 C     17  16  15     1.403812478504   119.11590638   178.73147052
 C     20  16  17     1.388755457373   121.57717351     1.16550014
 C     22  20  16     1.389679548976   118.55638081   357.19055987
 C     13   8   2     2.535591261952   102.48489710   198.67375014
 C     24  13   8     1.404684047111    29.46003697   216.94164330
 C     19  11   3     1.382023746876   120.79784498   181.56654500
 C     12   4   1     2.375057329064    95.85477472     2.97854652
 C     27  12   4     1.401742933007   117.11576576   298.02714539
 C     10   2   1     3.768096542260   132.43391494    61.73060738
 C     29  10   2     1.396214592087   106.00804961   329.20009693
 C     29  10   2     1.398078216348    82.63164273   209.77852563
 C     30  29  10     1.403708115726   120.74887112   269.45622414
 C     27  12   4     1.415960941364   116.41727602    88.57473813
 C     24  13   8     1.393948192739   150.57219140   217.05535039
 C     28  27  12     1.395729211014   121.09864497   149.83998718
 C     25  24  13     1.406640298383   117.91706152   180.36176914
 C     31  29  10     1.397902946590   119.26369015   105.01839600
 C     37  31  29     1.388285054492   120.13522301   359.39410220
 C     33  27  12     1.403427062990   118.70331198   208.62841743
 C     39  33  27     1.396493815332   121.49340557     1.77612552
 C     34  24  13     1.399174121012   120.36791147   359.94757508
 C     36  25  24     1.396508464665   121.15369827   359.43498190
 Cu    22  20  16     1.948638119006   115.95976753   172.79114855
 H     10   2   1     1.087752314033   118.45764411    45.51457113
 H     15  11   3     1.095186240257   125.18537656   313.88965745
 H      3   2   1     1.090417736697   150.04818752   121.61120549
 H      4   1   2     1.089338533662    88.10575780   165.77030069
 H      7   5   4     1.088616087934   119.42265572   182.54794136
 H      6   3   2     1.089930007106   119.37169718   178.88937552
 H      9   4   1     1.090908135678   119.59061657   183.44224812
 H     15  11   3     1.099827741892   125.24434451   142.83218466
 H     24  13   8     1.088686767743    90.30937600    35.95244951
 H     16  15  11     1.088278799147    64.02767777   105.52467116
 H     20  16  53     1.090630254400   118.33726889     0.75491619
 H     21  17  16     1.090141722322   119.24092003   179.18193695
 H     14   7   5     1.090630002575   119.52993505   183.10021812
 H     18  10   2     1.090718418658   119.80082746   179.88620501
 H     28  27  12     1.090364919789   118.29756894   328.79248990
 H     15  11   3     1.100023051765    49.05072999   228.50092813
 H     19  11   3     1.090886501372   118.65432789     1.14183824
 H     23  22  20     1.090237784182   120.89923232   180.78866630
 H     29  10   2     1.090573363526    81.41906810    87.67015096
 H     30  29  10     1.088450629506   119.74930975    89.46507467
 H     26  19  11     1.090611928780   120.10870778   179.82630110
 H     31  29  10     1.090530189538   120.35594312   284.93164903
 H     34  24  13     1.090827898525   119.42701551   179.74422299
 H     36  25  24     1.090218187572   119.35981402   181.21595524
 H     35  28  27     1.090829030961   119.89459251   180.13549785
 H     37  31  29     1.090260659313   120.40754326   179.88833688
 H     38  37  31     1.087448806834   119.81736413   181.38906461
 H     39  33  27     1.090997123317   118.69919999   181.08106383
 H     40  39  33     1.090340510836   120.02830429   179.31789725
 H     41  34  24     1.090659119160   120.37555622   179.56648317
 H     42  36  25     1.090665753204   119.63330879   180.79846788
 N      5   4   1     1.369098219928   143.68042019    20.07932297
 N     12   4   1     1.357922107274   125.98470750   353.35452957
 O     17  16  15     1.360106690715   124.53412895   358.47765365

---------------------------
INTERNAL COORDINATES (A.U.)
---------------------------
 Br     0   0   0     0.000000000000     0.00000000     0.00000000
 C      1   0   0    10.899894559295     0.00000000     0.00000000
 C      2   1   0     4.632497299161   125.11191899     0.00000000
 C      1   2   3    10.888108906774    61.40831969   111.69877152
 C      4   1   2     4.635034371387    61.82643092   347.53531146
 C      3   2   1     2.603054338197    89.53252862   302.35352691
 C      5   4   1     2.663732209903    89.37802914   184.14230796
 C      2   1   3     2.709411338003    62.92316912   291.68031664
 C      4   1   2     2.634050070885   151.40524862   342.52021993
 C      2   1   3     2.677097627350    75.84108225   154.75062580
 C      3   2   1     2.679627192212    30.79303196   122.63211682
 C      4   1   2     2.670217084491    31.18409982   344.49522254
 C      8   2   1     2.653445601080   119.91368387   132.19298003
 C      7   5   4     2.634983414826   120.23033796   358.25411867
 C     11   3   2     9.613807637219    97.23914780   246.89348826
 C     15  11   3     5.355080327235    50.00528958   117.12271916
 C     16  15  11     2.649932402964    57.24555640   283.50491603
 C     10   2   1     2.609966410026   121.01021417   225.99945668
 C     11   3   2     2.682922398490   122.08132149   179.77961640
 C     16  15  11     2.647959362802   176.12203211   317.22162400
 C     17  16  15     2.652821127753   119.11590638   178.73147052
 C     20  16  17     2.624367481423   121.57717351     1.16550014
 C     22  20  16     2.626113761475   118.55638081   357.19055987
 C     13   8   2     4.791573072654   102.48489710   198.67375014
 C     24  13   8     2.654468153727    29.46003697   216.94164330
 C     19  11   3     2.611646392171   120.79784498   181.56654500
 C     12   4   1     4.488207904294    95.85477472     2.97854652
 C     27  12   4     2.648910253543   117.11576576   298.02714539
 C     10   2   1     7.120670511046   132.43391494    61.73060738
 C     29  10   2     2.638463203229   106.00804961   329.20009693
 C     29  10   2     2.641984942699    82.63164273   209.77852563
 C     30  29  10     2.652623910684   120.74887112   269.45622414
 C     27  12   4     2.675778395508   116.41727602    88.57473813
 C     24  13   8     2.634180329151   150.57219140   217.05535039
 C     28  27  12     2.637545965930   121.09864497   149.83998718
 C     25  24  13     2.658164932882   117.91706152   180.36176914
 C     31  29  10     2.641653730856   119.26369015   105.01839600
 C     37  31  29     2.623478548806   120.13522301   359.39410220
 C     33  27  12     2.652092797984   118.70331198   208.62841743
 C     39  33  27     2.638990858693   121.49340557     1.77612552
 C     34  24  13     2.644055902384   120.36791147   359.94757508
 C     36  25  24     2.639018541920   121.15369827   359.43498190
 Cu    22  20  16     3.682392379041   115.95976753   172.79114855
 H     10   2   1     2.055553975062   118.45764411    45.51457113
 H     15  11   3     2.069602059724   125.18537656   313.88965745
 H      3   2   1     2.060590893927   150.04818752   121.61120549
 H      4   1   2     2.058551495749    88.10575780   165.77030069
 H      7   5   4     2.057186271175   119.42265572   182.54794136
 H      6   3   2     2.059669218573   119.37169718   178.88937552
 H      9   4   1     2.061517613698   119.59061657   183.44224812
 H     15  11   3     2.078373226665   125.24434451   142.83218466
 H     24  13   8     2.057319836658    90.30937600    35.95244951
 H     16  15  11     2.056548887741    64.02767777   105.52467116
 H     20  16  53     2.060992494184   118.33726889     0.75491619
 H     21  17  16     2.060069302351   119.24092003   179.18193695
 H     14   7   5     2.060992018305   119.52993505   183.10021812
 H     18  10   2     2.061159100488   119.80082746   179.88620501
 H     28  27  12     2.060491084437   118.29756894   328.79248990
 H     15  11   3     2.078742308837    49.05072999   228.50092813
 H     19  11   3     2.061476730785   118.65432789     1.14183824
 H     23  22  20     2.060250832956   120.89923232   180.78866630
 H     29  10   2     2.060884986013    81.41906810    87.67015096
 H     30  29  10     2.056873600061   119.74930975    89.46507467
 H     26  19  11     2.060957863782   120.10870778   179.82630110
 H     31  29  10     2.060803399000   120.35594312   284.93164903
 H     34  24  13     2.061365987453   119.42701551   179.74422299
 H     36  25  24     2.060213800731   119.35981402   181.21595524
 H     35  28  27     2.061368127446   119.89459251   180.13549785
 H     37  31  29     2.060294060691   120.40754326   179.88833688
 H     38  37  31     2.054980429576   119.81736413   181.38906461
 H     39  33  27     2.061685775966   118.69919999   181.08106383
 H     40  39  33     2.060444958199   120.02830429   179.31789725
 H     41  34  24     2.061047040676   120.37555622   179.56648317
 H     42  36  25     2.061059577202   119.63330879   180.79846788
 N      5   4   1     2.587220686104   143.68042019    20.07932297
 N     12   4   1     2.566100893946   125.98470750   353.35452957
 O     17  16  15     2.570229158364   124.53412895   358.47765365

---------------------
BASIS SET INFORMATION
---------------------
There are 6 groups of distinct atoms

 Group   1 Type Br  : 17s13p7d contracted to 6s5p3d pattern {842111/64111/511}
 Group   2 Type C   : 11s6p1d contracted to 5s3p1d pattern {62111/411/1}
 Group   3 Type Cu  : 17s11p6d contracted to 6s4p3d pattern {842111/6311/411}
 Group   4 Type H   : 5s contracted to 3s pattern {311}
 Group   5 Type N   : 11s6p1d contracted to 5s3p1d pattern {62111/411/1}
 Group   6 Type O   : 11s6p2d contracted to 5s3p2d pattern {62111/411/11}

Atom   0Br   basis set group =>   1
Atom   1C    basis set group =>   2
Atom   2C    basis set group =>   2
Atom   3C    basis set group =>   2
Atom   4C    basis set group =>   2
Atom   5C    basis set group =>   2
Atom   6C    basis set group =>   2
Atom   7C    basis set group =>   2
Atom   8C    basis set group =>   2
Atom   9C    basis set group =>   2
Atom  10C    basis set group =>   2
Atom  11C    basis set group =>   2
Atom  12C    basis set group =>   2
Atom  13C    basis set group =>   2
Atom  14C    basis set group =>   2
Atom  15C    basis set group =>   2
Atom  16C    basis set group =>   2
Atom  17C    basis set group =>   2
Atom  18C    basis set group =>   2
Atom  19C    basis set group =>   2
Atom  20C    basis set group =>   2
Atom  21C    basis set group =>   2
Atom  22C    basis set group =>   2
Atom  23C    basis set group =>   2
Atom  24C    basis set group =>   2
Atom  25C    basis set group =>   2
Atom  26C    basis set group =>   2
Atom  27C    basis set group =>   2
Atom  28C    basis set group =>   2
Atom  29C    basis set group =>   2
Atom  30C    basis set group =>   2
Atom  31C    basis set group =>   2
Atom  32C    basis set group =>   2
Atom  33C    basis set group =>   2
Atom  34C    basis set group =>   2
Atom  35C    basis set group =>   2
Atom  36C    basis set group =>   2
Atom  37C    basis set group =>   2
Atom  38C    basis set group =>   2
Atom  39C    basis set group =>   2
Atom  40C    basis set group =>   2
Atom  41C    basis set group =>   2
Atom  42Cu   basis set group =>   3
Atom  43H    basis set group =>   4
Atom  44H    basis set group =>   4
Atom  45H    basis set group =>   4
Atom  46H    basis set group =>   4
Atom  47H    basis set group =>   4
Atom  48H    basis set group =>   4
Atom  49H    basis set group =>   4
Atom  50H    basis set group =>   4
Atom  51H    basis set group =>   4
Atom  52H    basis set group =>   4
Atom  53H    basis set group =>   4
Atom  54H    basis set group =>   4
Atom  55H    basis set group =>   4
Atom  56H    basis set group =>   4
Atom  57H    basis set group =>   4
Atom  58H    basis set group =>   4
Atom  59H    basis set group =>   4
Atom  60H    basis set group =>   4
Atom  61H    basis set group =>   4
Atom  62H    basis set group =>   4
Atom  63H    basis set group =>   4
Atom  64H    basis set group =>   4
Atom  65H    basis set group =>   4
Atom  66H    basis set group =>   4
Atom  67H    basis set group =>   4
Atom  68H    basis set group =>   4
Atom  69H    basis set group =>   4
Atom  70H    basis set group =>   4
Atom  71H    basis set group =>   4
Atom  72H    basis set group =>   4
Atom  73H    basis set group =>   4
Atom  74N    basis set group =>   5
Atom  75N    basis set group =>   5
Atom  76O    basis set group =>   6
---------------------------------
AUXILIARY/J BASIS SET INFORMATION
---------------------------------
There are 6 groups of distinct atoms

 Group   1 Type Br  : 19s5p5d3f1g contracted to 8s4p3d2f1g pattern {121111111/2111/311/21/1}
 Group   2 Type C   : 8s3p3d contracted to 6s3p3d pattern {311111/111/111}
 Group   3 Type Cu  : 19s5p5d3f3g contracted to 8s5p4d3f3g pattern {121111111/11111/2111/111/111}
 Group   4 Type H   : 5s2p contracted to 3s1p pattern {311/2}
 Group   5 Type N   : 8s3p3d contracted to 6s3p3d pattern {311111/111/111}
 Group   6 Type O   : 8s3p3d contracted to 6s3p3d pattern {311111/111/111}

Atom   0Br   basis set group =>   1
Atom   1C    basis set group =>   2
Atom   2C    basis set group =>   2
Atom   3C    basis set group =>   2
Atom   4C    basis set group =>   2
Atom   5C    basis set group =>   2
Atom   6C    basis set group =>   2
Atom   7C    basis set group =>   2
Atom   8C    basis set group =>   2
Atom   9C    basis set group =>   2
Atom  10C    basis set group =>   2
Atom  11C    basis set group =>   2
Atom  12C    basis set group =>   2
Atom  13C    basis set group =>   2
Atom  14C    basis set group =>   2
Atom  15C    basis set group =>   2
Atom  16C    basis set group =>   2
Atom  17C    basis set group =>   2
Atom  18C    basis set group =>   2
Atom  19C    basis set group =>   2
Atom  20C    basis set group =>   2
Atom  21C    basis set group =>   2
Atom  22C    basis set group =>   2
Atom  23C    basis set group =>   2
Atom  24C    basis set group =>   2
Atom  25C    basis set group =>   2
Atom  26C    basis set group =>   2
Atom  27C    basis set group =>   2
Atom  28C    basis set group =>   2
Atom  29C    basis set group =>   2
Atom  30C    basis set group =>   2
Atom  31C    basis set group =>   2
Atom  32C    basis set group =>   2
Atom  33C    basis set group =>   2
Atom  34C    basis set group =>   2
Atom  35C    basis set group =>   2
Atom  36C    basis set group =>   2
Atom  37C    basis set group =>   2
Atom  38C    basis set group =>   2
Atom  39C    basis set group =>   2
Atom  40C    basis set group =>   2
Atom  41C    basis set group =>   2
Atom  42Cu   basis set group =>   3
Atom  43H    basis set group =>   4
Atom  44H    basis set group =>   4
Atom  45H    basis set group =>   4
Atom  46H    basis set group =>   4
Atom  47H    basis set group =>   4
Atom  48H    basis set group =>   4
Atom  49H    basis set group =>   4
Atom  50H    basis set group =>   4
Atom  51H    basis set group =>   4
Atom  52H    basis set group =>   4
Atom  53H    basis set group =>   4
Atom  54H    basis set group =>   4
Atom  55H    basis set group =>   4
Atom  56H    basis set group =>   4
Atom  57H    basis set group =>   4
Atom  58H    basis set group =>   4
Atom  59H    basis set group =>   4
Atom  60H    basis set group =>   4
Atom  61H    basis set group =>   4
Atom  62H    basis set group =>   4
Atom  63H    basis set group =>   4
Atom  64H    basis set group =>   4
Atom  65H    basis set group =>   4
Atom  66H    basis set group =>   4
Atom  67H    basis set group =>   4
Atom  68H    basis set group =>   4
Atom  69H    basis set group =>   4
Atom  70H    basis set group =>   4
Atom  71H    basis set group =>   4
Atom  72H    basis set group =>   4
Atom  73H    basis set group =>   4
Atom  74N    basis set group =>   5
Atom  75N    basis set group =>   5
Atom  76O    basis set group =>   6


           ************************************************************
           *        Program running with 32 parallel MPI-processes    *
           *              working on a common directory               *
           ************************************************************
------------------------------------------------------------------------------
                           ORCA GTO INTEGRAL CALCULATION
                           -- RI-GTO INTEGRALS CHOSEN --
------------------------------------------------------------------------------
------------------------------------------------------------------------------
                   ___                                                        
                  /   \      - P O W E R E D   B Y -                         
                 /     \                                                     
                 |  |  |   _    _      __       _____    __    __             
                 |  |  |  | |  | |    /  \     |  _  \  |  |  /  |          
                  \  \/   | |  | |   /    \    | | | |  |  | /  /          
                 / \  \   | |__| |  /  /\  \   | |_| |  |  |/  /          
                |  |  |   |  __  | /  /__\  \  |    /   |      \           
                |  |  |   | |  | | |   __   |  |    \   |  |\   \          
                \     /   | |  | | |  |  |  |  | |\  \  |  | \   \       
                 \___/    |_|  |_| |__|  |__|  |_| \__\ |__|  \__/        
                                                                              
                      - O R C A' S   B I G   F R I E N D -                    
                                      &                                       
                       - I N T E G R A L  F E E D E R -                       
                                                                              
 v1 FN, 2020, v2 2021                                                         
------------------------------------------------------------------------------


Reading SHARK input file FBGRMGAZGXUGPH-UHFFFAOYSA-M-FullTZ.SHARKINP.tmp ... ok
----------------------
SHARK INTEGRAL PACKAGE
----------------------

Number of atoms                             ...     77
Number of basis functions                   ...   1003
Number of shells                            ...    517
Maximum angular momentum                    ...      2
Integral batch strategy                     ... SHARK/LIBINT Hybrid
RI-J (if used) integral strategy            ... SPLIT-RIJ (Revised 2003 algorithm where possible)
Printlevel                                  ...      1
Contraction scheme used                     ... SEGMENTED contraction
Coulomb Range Separation                    ... NOT USED
Exchange Range Separation                   ... NOT USED
Finite Nucleus Model                        ... NOT USED
Auxiliary Coulomb fitting basis             ... AVAILABLE
   # of basis functions in Aux-J            ...   1655
   # of shells in Aux-J                     ...    693
   Maximum angular momentum in Aux-J        ...      4
Auxiliary J/K fitting basis                 ... NOT available
Auxiliary Correlation fitting basis         ... NOT available
Auxiliary 'external' fitting basis          ... NOT available
Integral threshold                          ...     2.500000e-11
Primitive cut-off                           ...     2.500000e-12
Primitive pair pre-selection threshold      ...     2.500000e-12

Calculating pre-screening integrals         ... done (  1.0 sec) Dimension = 517
Organizing shell pair data                  ... done (  0.3 sec)
Shell pair information
Total number of shell pairs                 ...    133903
Shell pairs after pre-screening             ...     83502
Total number of primitive shell pairs       ...    520876
Primitive shell pairs kept                  ...    185566
          la=0 lb=0:  30209 shell pairs
          la=1 lb=0:  31604 shell pairs
          la=1 lb=1:   7962 shell pairs
          la=2 lb=0:   8409 shell pairs
          la=2 lb=1:   4724 shell pairs
          la=2 lb=2:    594 shell pairs

Calculating one electron integrals          ... done (  0.1 sec)
Calculating RI/J V-Matrix + Cholesky decomp.... done (  0.7 sec)
Calculating Nuclear repulsion               ... done (  0.0 sec) ENN=   7545.739835183336 Eh

SHARK setup successfully completed in   2.2 seconds

Maximum memory used throughout the entire GTOINT-calculation: 116.5 MB


           ************************************************************
           *        Program running with 32 parallel MPI-processes    *
           *              working on a common directory               *
           ************************************************************
-------------------------------------------------------------------------------
                                 ORCA SCF
-------------------------------------------------------------------------------

------------
SCF SETTINGS
------------
Hamiltonian:
 Density Functional     Method          .... DFT(GTOs)
 Exchange Functional    Exchange        .... B973C
 Correlation Functional Correlation     .... B973C
 Gradients option       PostSCFGGA      .... off
   Density functional embedding theory  .... OFF
 RI-approximation to the Coulomb term is turned on
   Number of AuxJ basis functions       .... 1655


General Settings:
 Integral files         IntName         .... FBGRMGAZGXUGPH-UHFFFAOYSA-M-FullTZ
 Hartree-Fock type      HFTyp           .... RHF
 Total Charge           Charge          ....   -1
 Multiplicity           Mult            ....    1
 Number of Electrons    NEL             ....  364
 Basis Dimension        Dim             .... 1003
 Nuclear Repulsion      ENuc            ....   7545.7398351833 Eh

Convergence Acceleration:
 DIIS                   CNVDIIS         .... on
   Start iteration      DIISMaxIt       ....    12
   Startup error        DIISStart       ....  0.200000
   # of expansion vecs  DIISMaxEq       ....     5
   Bias factor          DIISBfac        ....   1.050
   Max. coefficient     DIISMaxC        ....  10.000
 Trust-Rad. Augm. Hess. CNVTRAH         .... auto
   Auto Start mean grad. ratio tolernc. ....  1.125000
   Auto Start start iteration           ....    20
   Auto Start num. interpolation iter.  ....    10
   Max. Number of Micro iterations      ....    16
   Max. Number of Macro iterations      .... Maxiter - #DIIS iter
   Number of Davidson start vectors     ....     2
   Converg. threshold I  (grad. norm)   ....   1.000e-05
   Converg. threshold II (energy diff.) ....   1.000e-08
   Grad. Scal. Fac. for Micro threshold ....   0.100
   Minimum threshold for Micro iter.    ....   0.010
   NR start threshold (gradient norm)   ....   0.001
   Initial trust radius                 ....   0.400
   Minimum AH scaling param. (alpha)    ....   1.000
   Maximum AH scaling param. (alpha)    .... 1000.000
   Orbital update algorithm             .... Taylor
   White noise on init. David. guess    .... on
   Maximum white noise                  ....   0.010
   Quad. conv. algorithm                .... NR
   COSX micro iterations for RIJONX calc.... off
 SOSCF                  CNVSOSCF        .... off
 Level Shifting         CNVShift        .... on
   Level shift para.    LevelShift      ....    0.2500
   Turn off err/grad.   ShiftErr        ....    0.0010
 Zerner damping         CNVZerner       .... off
 Static damping         CNVDamp         .... on
   Fraction old density DampFac         ....    0.7000
   Max. Damping (<1)    DampMax         ....    0.9800
   Min. Damping (>=0)   DampMin         ....    0.0000
   Turn off err/grad.   DampErr         ....    0.1000
 Fernandez-Rico         CNVRico         .... off

SCF Procedure:
 Maximum # iterations   MaxIter         ....   500
 SCF integral mode      SCFMode         .... Direct
   Integral package                     .... SHARK and LIBINT hybrid scheme
 Reset frequency        DirectResetFreq ....    20
 Integral Threshold     Thresh          ....  2.500e-11 Eh
 Primitive CutOff       TCut            ....  2.500e-12 Eh

Convergence Tolerance:
 Convergence Check Mode ConvCheckMode   .... Total+1el-Energy
 Convergence forced     ConvForced      .... 0
 Energy Change          TolE            ....  1.000e-08 Eh
 1-El. energy change                    ....  1.000e-05 Eh
 DIIS Error             TolErr          ....  5.000e-07


Diagonalization of the overlap matrix:
Smallest eigenvalue                        ... 3.408e-06
Time for diagonalization                   ...    0.402 sec
Threshold for overlap eigenvalues          ... 1.000e-08
Number of eigenvalues below threshold      ... 0
Time for construction of square roots      ...    0.356 sec
Total time needed                          ...    0.762 sec

--------------------------------
INITIAL GUESS: MINIMAL BASIS EHT
--------------------------------
The minimal basis has 287 functions
EHT matrix was diagonalized
Basis set overlap was calculated now projecting the orbitals
Using GuessMode=FMatrix for the initial guess
C*T matrix was formed
Effective Fockian was calculated
Effective Fockian was diagonalized
Initial density was built
                      ------------------
                      INITIAL GUESS DONE
                      ------------------
-------------------
DFT GRID GENERATION
-------------------

General Integration Accuracy     IntAcc      ... 4.388
Radial Grid Type                 RadialGrid  ... OptM3 with GC (2021)
Angular Grid (max. ang.)         AngularGrid ... 4 (Lebedev-302)
Angular grid pruning method      GridPruning ... 4 (adaptive)
Weight generation scheme         WeightScheme... Becke
Basis function cutoff            BFCut       ... 1.0000e-11
Integration weight cutoff        WCut        ... 1.0000e-14
Angular grids for H and He will be reduced by one unit
Partially contracted basis set               ... off
Rotationally invariant grid construction     ... off

Total number of grid points                  ...   379679
Total number of batches                      ...     5973
Average number of points per batch           ...       63
Average number of grid points per atom       ...     4931
Time for grid setup =    2.013 sec


--------------------
CPCM SOLVATION MODEL
--------------------
CPCM parameters:
  Epsilon                                         ...      47.2000
  Refrac                                          ...       1.4790
  Rsolv                                           ...       1.3000
  Surface type                                    ... GAUSSIAN VDW
  Epsilon function type                           ...         CPCM
Radii:
 Radius for Br used is    4.1952 Bohr (=   2.2200 Ang.)
 Radius for C  used is    3.8550 Bohr (=   2.0400 Ang.)
 Radius for Cu used is    3.1747 Bohr (=   1.6800 Ang.)
 Radius for H  used is    2.4944 Bohr (=   1.3200 Ang.)
 Radius for N  used is    3.5149 Bohr (=   1.8600 Ang.)
 Radius for O  used is    3.4469 Bohr (=   1.8240 Ang.)
Calculating surface                               ...        done! (  0.0s)
GEPOL surface points                              ...         3850
GEPOL Volume                                      ...    4913.0310
GEPOL Surface-area                                ...    2193.9023
Calculating surface distance matrix               ...        done! (  0.1s)
Performing Cholesky decomposition & store         ...        done! (  0.8s)
Overall time for CPCM initialization              ...                 0.9s
--------------
SCF ITERATIONS
--------------
ITER       Energy         Delta-E        Max-DP      RMS-DP      [F,P]     Damp
               ***  Starting incremental Fock matrix formation  ***
  0  -5971.9301180985   0.000000000000 1.93707926  0.00910874  1.5929897 0.7000
  1  -5972.6804204425  -0.750302343951 3.55251191  0.02341043  0.8840391 0.7000
  2  -5975.6687225065  -2.988302064049 0.81791250  0.00522508  0.4847056 0.7000
  3  -5977.0863949179  -1.417672411329 1.69509683  0.00950334  0.4745030 0.7000
  4  -5978.1357790250  -1.049384107123 1.27730439  0.00781290  0.2494909 0.7000
                               ***Turning on DIIS***
  5  -5978.8938166583  -0.758037633289 0.92426353  0.00550095  0.1694080 0.7000
  6  -5979.4297776030  -0.535960944767 0.68741128  0.00396481  0.1208765 0.7000
  7  -5979.8070833862  -0.377305783203 1.76521805  0.00986999  0.0844214 0.0000
  8  -5980.6830325040  -0.875949117728 0.03070604  0.00029392  0.1049341 0.7000
  9  -5980.6910646556  -0.008032151672 0.04750222  0.00065607  0.0364114 0.0000
 10  -5980.6951792342  -0.004114578563 0.03887675  0.00026309  0.0474424 0.0000
 11  -5980.6984264018  -0.003247167609 0.01340100  0.00014897  0.0080329 0.0000
 12  -5980.6989987562  -0.000572354428 0.00575650  0.00007836  0.0010438 0.0000
 13  -5980.6992753458  -0.000276589573 0.00406953  0.00005769  0.0060028 0.0000
 14  -5980.6994329962  -0.000157650389 0.00712424  0.00005644  0.0022478 0.0000
 15  -5980.6995184796  -0.000085483435 0.00448343  0.00003632  0.0018768 0.0000
 16  -5980.6995613715  -0.000042891906 0.00538785  0.00003271  0.0022878 0.0000
 17  -5980.6995967004  -0.000035328874 0.00137489  0.00000910  7.1930632 0.7000
 18  -5980.6996029608  -0.000006260389 0.00550327  0.00003075  0.0012514 0.0000
 19  -5980.6996221347  -0.000019173891 0.00418998  0.00004305  0.0006614 0.0000
               *** Restarting incremental Fock matrix formation ***
                                   *** Resetting DIIS ***

 WARNING: the maximum gradient error descreased on average only by a factor   1.1
          during the last 20 iterations

                      *** Initiating the TRAH-SCF procedure ***


TRAH GRID
---------

General Integration Accuracy     IntAcc      ... 3.467
Radial Grid Type                 RadialGrid  ... OptM3 with GC (2021)
Angular Grid (max. ang.)         AngularGrid ... 1 (Lebedev-50)
Angular grid pruning method      GridPruning ... 4 (adaptive)
Weight generation scheme         WeightScheme... Becke
Basis function cutoff            BFCut       ... 1.0000e-11
Integration weight cutoff        WCut        ... 1.0000e-14
Angular grids for H and He will be reduced by one unit
Partially contracted basis set               ... off
Rotationally invariant grid construction     ... off

Total number of grid points                  ...    60197
Total number of batches                      ...      981
Average number of points per batch           ...       61
Average number of grid points per atom       ...      782

 --------------------------------------------------------------------------------------------
   Iter.        energy            ||Error||_2        Shift      TRadius  Mac/Mic        Rej.
 --------------------------------------------------------------------------------------------
    0      -5980.699635345014     8.782908e-03                     0.400 (TRAH MAcro)   No
    0     dE    -2.951384e-06     1.039525e-02    -5.9028e-06      0.001 (TRAH MIcro)
    0     dE    -6.037851e-06     3.161101e-03    -1.2076e-05      0.003 (TRAH MIcro)
    0     dE    -6.556072e-06     1.379934e-03    -1.3112e-05      0.003 (TRAH MIcro)
    0     dE    -6.628691e-06     4.701680e-04    -1.3257e-05      0.003 (TRAH MIcro)
    1      -5980.699641968358     4.698333e-04                           (NR   MAcro)
    1     dE    -9.185822e-09     4.642555e-04                           (NR   MIcro)
    1     dE    -1.447454e-08     1.793661e-04                           (NR   MIcro)
    1     dE    -1.647073e-08     8.796834e-05                           (NR   MIcro)
    1     dE    -1.685305e-08     3.407662e-05                           (NR   MIcro)
    1     dE    -1.692516e-08     1.460852e-05                           (NR   MIcro)
    1     dE    -1.694216e-08     6.562677e-06                           (NR   MIcro)
    1     dE    -1.694522e-08     2.023968e-06                           (NR   MIcro)
    2      -5980.699641984358     2.788375e-06                           (NR   MAcro)
    2     dE    -4.906740e-13     1.415647e-06                           (NR   MIcro)
    2     dE    -6.230584e-13     7.588604e-07                           (NR   MIcro)
    3      -5980.699641984390     7.502266e-07                           (NR   MAcro)

               *****************************************************
               *                     SUCCESS                       *
               *           SCF CONVERGED AFTER  37 CYCLES          *
               *****************************************************


----------------
TOTAL SCF ENERGY
----------------

Total Energy       :        -5980.69964198 Eh         -162743.11096 eV

Components:
Nuclear Repulsion  :         7545.73983518 Eh          205330.01969 eV
Electronic Energy  :       -13526.43947717 Eh         -368073.13065 eV
One Electron Energy:       -23353.53570500 Eh         -635482.01381 eV
Two Electron Energy:         9827.09622783 Eh          267408.88316 eV
CPCM Dielectric    :           -0.09993277 Eh              -2.71931 eV

Virial components:
Potential Energy   :       -11948.84980852 Eh         -325144.73333 eV
Kinetic Energy     :         5968.15016654 Eh          162401.62237 eV
Virial Ratio       :            2.00210274


DFT components:
N(Alpha)           :      181.999667328200 electrons
N(Beta)            :      181.999667328200 electrons
N(Total)           :      363.999334656401 electrons
E(XC)              :     -415.285231349838 Eh       
DFET-embed. en.    :        0.000000000000 Eh       
CPCM Solvation Model Properties:
Surface-charge          :            0.95027918
Charge-correction       :           -0.00483670 Eh              -0.13161 eV
Free-energy (cav+disp)  :  This term is not implemented in the current solvation scheme

---------------
SCF CONVERGENCE
---------------

  Last Energy change         ...   -3.1832e-11  Tolerance :   1.0000e-08
  Last Orbital Gradient      ...    7.5023e-07  Tolerance :   1.0000e-05
  Last Orbital Rotation      ...    6.8007e-07

             **** THE GBW FILE WAS UPDATED (FBGRMGAZGXUGPH-UHFFFAOYSA-M-FullTZ.gbw) ****
             **** DENSITY FBGRMGAZGXUGPH-UHFFFAOYSA-M-FullTZ.scfp WAS UPDATED ****
             **** ENERGY FILE WAS UPDATED (FBGRMGAZGXUGPH-UHFFFAOYSA-M-FullTZ.en.tmp) ****
             **** THE GBW FILE WAS UPDATED (FBGRMGAZGXUGPH-UHFFFAOYSA-M-FullTZ.gbw) ****
             **** DENSITY FBGRMGAZGXUGPH-UHFFFAOYSA-M-FullTZ.scfp WAS UPDATED ****
----------------
ORBITAL ENERGIES
----------------

  NO   OCC          E(Eh)            E(eV) 
   0   2.0000    -480.793431    -13083.0544 
   1   2.0000    -321.390623     -8745.4835 
   2   2.0000     -61.859296     -1683.2770 
   3   2.0000     -55.812052     -1518.7231 
   4   2.0000     -55.810570     -1518.6828 
   5   2.0000     -55.810438     -1518.6792 
   6   2.0000     -38.367239     -1044.0257 
   7   2.0000     -33.690865      -916.7751 
   8   2.0000     -33.690006      -916.7517 
   9   2.0000     -33.686338      -916.6518 
  10   2.0000     -18.771177      -510.7897 
  11   2.0000     -13.987889      -380.6298 
  12   2.0000     -13.974590      -380.2679 
  13   2.0000      -9.940527      -270.4955 
  14   2.0000      -9.933460      -270.3032 
  15   2.0000      -9.927254      -270.1343 
  16   2.0000      -9.920956      -269.9629 
  17   2.0000      -9.914527      -269.7880 
  18   2.0000      -9.914180      -269.7786 
  19   2.0000      -9.905545      -269.5436 
  20   2.0000      -9.905288      -269.5366 
  21   2.0000      -9.903227      -269.4805 
  22   2.0000      -9.900391      -269.4033 
  23   2.0000      -9.900128      -269.3962 
  24   2.0000      -9.899066      -269.3673 
  25   2.0000      -9.894985      -269.2562 
  26   2.0000      -9.894711      -269.2488 
  27   2.0000      -9.894442      -269.2415 
  28   2.0000      -9.894127      -269.2329 
  29   2.0000      -9.893781      -269.2235 
  30   2.0000      -9.893729      -269.2221 
  31   2.0000      -9.893573      -269.2178 
  32   2.0000      -9.893232      -269.2085 
  33   2.0000      -9.892235      -269.1814 
  34   2.0000      -9.892077      -269.1771 
  35   2.0000      -9.891574      -269.1634 
  36   2.0000      -9.891460      -269.1603 
  37   2.0000      -9.891458      -269.1603 
  38   2.0000      -9.891424      -269.1593 
  39   2.0000      -9.890737      -269.1406 
  40   2.0000      -9.889744      -269.1136 
  41   2.0000      -9.889118      -269.0966 
  42   2.0000      -9.888755      -269.0867 
  43   2.0000      -9.888684      -269.0848 
  44   2.0000      -9.887819      -269.0612 
  45   2.0000      -9.881868      -268.8993 
  46   2.0000      -9.881159      -268.8800 
  47   2.0000      -9.881129      -268.8792 
  48   2.0000      -9.880725      -268.8682 
  49   2.0000      -9.879869      -268.8449 
  50   2.0000      -9.879820      -268.8436 
  51   2.0000      -9.879223      -268.8273 
  52   2.0000      -9.877783      -268.7881 
  53   2.0000      -9.872306      -268.6391 
  54   2.0000      -8.382356      -228.0955 
  55   2.0000      -6.262399      -170.4085 
  56   2.0000      -6.256817      -170.2566 
  57   2.0000      -6.256059      -170.2360 
  58   2.0000      -4.147316      -112.8542 
  59   2.0000      -2.694328       -73.3164 
  60   2.0000      -2.689456       -73.1838 
  61   2.0000      -2.669061       -72.6289 
  62   2.0000      -2.468917       -67.1826 
  63   2.0000      -2.467695       -67.1494 
  64   2.0000      -2.467183       -67.1355 
  65   2.0000      -2.463014       -67.0220 
  66   2.0000      -2.462978       -67.0210 
  67   2.0000      -0.980012       -26.6675 
  68   2.0000      -0.863049       -23.4847 
  69   2.0000      -0.835155       -22.7257 
  70   2.0000      -0.794291       -21.6138 
  71   2.0000      -0.783741       -21.3267 
  72   2.0000      -0.783195       -21.3118 
  73   2.0000      -0.767512       -20.8851 
  74   2.0000      -0.764938       -20.8150 
  75   2.0000      -0.749710       -20.4007 
  76   2.0000      -0.743692       -20.2369 
  77   2.0000      -0.703999       -19.1568 
  78   2.0000      -0.702751       -19.1228 
  79   2.0000      -0.695696       -18.9309 
  80   2.0000      -0.678320       -18.4580 
  81   2.0000      -0.676811       -18.4170 
  82   2.0000      -0.675596       -18.3839 
  83   2.0000      -0.674593       -18.3566 
  84   2.0000      -0.665209       -18.1012 
  85   2.0000      -0.661088       -17.9891 
  86   2.0000      -0.656878       -17.8746 
  87   2.0000      -0.654067       -17.7981 
  88   2.0000      -0.638165       -17.3654 
  89   2.0000      -0.637224       -17.3398 
  90   2.0000      -0.619015       -16.8443 
  91   2.0000      -0.615854       -16.7582 
  92   2.0000      -0.574525       -15.6336 
  93   2.0000      -0.564755       -15.3678 
  94   2.0000      -0.561522       -15.2798 
  95   2.0000      -0.555974       -15.1288 
  96   2.0000      -0.547304       -14.8929 
  97   2.0000      -0.543081       -14.7780 
  98   2.0000      -0.539427       -14.6785 
  99   2.0000      -0.538196       -14.6451 
 100   2.0000      -0.527085       -14.3427 
 101   2.0000      -0.523156       -14.2358 
 102   2.0000      -0.515653       -14.0316 
 103   2.0000      -0.507590       -13.8122 
 104   2.0000      -0.502705       -13.6793 
 105   2.0000      -0.475484       -12.9386 
 106   2.0000      -0.472897       -12.8682 
 107   2.0000      -0.470945       -12.8151 
 108   2.0000      -0.466179       -12.6854 
 109   2.0000      -0.456338       -12.4176 
 110   2.0000      -0.451061       -12.2740 
 111   2.0000      -0.434167       -11.8143 
 112   2.0000      -0.430479       -11.7139 
 113   2.0000      -0.425101       -11.5676 
 114   2.0000      -0.420600       -11.4451 
 115   2.0000      -0.419127       -11.4050 
 116   2.0000      -0.414859       -11.2889 
 117   2.0000      -0.410237       -11.1631 
 118   2.0000      -0.404694       -11.0123 
 119   2.0000      -0.401817       -10.9340 
 120   2.0000      -0.400075       -10.8866 
 121   2.0000      -0.397090       -10.8054 
 122   2.0000      -0.395891       -10.7727 
 123   2.0000      -0.392057       -10.6684 
 124   2.0000      -0.386878       -10.5275 
 125   2.0000      -0.383991       -10.4489 
 126   2.0000      -0.379507       -10.3269 
 127   2.0000      -0.377773       -10.2797 
 128   2.0000      -0.374996       -10.2042 
 129   2.0000      -0.372859       -10.1460 
 130   2.0000      -0.370114       -10.0713 
 131   2.0000      -0.368501       -10.0274 
 132   2.0000      -0.368090       -10.0162 
 133   2.0000      -0.364432        -9.9167 
 134   2.0000      -0.361346        -9.8327 
 135   2.0000      -0.356660        -9.7052 
 136   2.0000      -0.355638        -9.6774 
 137   2.0000      -0.347143        -9.4462 
 138   2.0000      -0.342133        -9.3099 
 139   2.0000      -0.338765        -9.2183 
 140   2.0000      -0.332391        -9.0448 
 141   2.0000      -0.329221        -8.9586 
 142   2.0000      -0.324055        -8.8180 
 143   2.0000      -0.323353        -8.7989 
 144   2.0000      -0.320835        -8.7304 
 145   2.0000      -0.317151        -8.6301 
 146   2.0000      -0.311241        -8.4693 
 147   2.0000      -0.310318        -8.4442 
 148   2.0000      -0.308381        -8.3915 
 149   2.0000      -0.304469        -8.2850 
 150   2.0000      -0.301260        -8.1977 
 151   2.0000      -0.299321        -8.1449 
 152   2.0000      -0.296570        -8.0701 
 153   2.0000      -0.293665        -7.9910 
 154   2.0000      -0.291396        -7.9293 
 155   2.0000      -0.290297        -7.8994 
 156   2.0000      -0.286963        -7.8087 
 157   2.0000      -0.281277        -7.6539 
 158   2.0000      -0.276489        -7.5237 
 159   2.0000      -0.271726        -7.3940 
 160   2.0000      -0.264783        -7.2051 
 161   2.0000      -0.260198        -7.0803 
 162   2.0000      -0.250953        -6.8288 
 163   2.0000      -0.247304        -6.7295 
 164   2.0000      -0.245042        -6.6679 
 165   2.0000      -0.238765        -6.4971 
 166   2.0000      -0.238023        -6.4769 
 167   2.0000      -0.233872        -6.3640 
 168   2.0000      -0.229928        -6.2567 
 169   2.0000      -0.225478        -6.1356 
 170   2.0000      -0.223999        -6.0953 
 171   2.0000      -0.222001        -6.0409 
 172   2.0000      -0.213886        -5.8201 
 173   2.0000      -0.210359        -5.7242 
 174   2.0000      -0.208405        -5.6710 
 175   2.0000      -0.207036        -5.6337 
 176   2.0000      -0.203285        -5.5317 
 177   2.0000      -0.196878        -5.3573 
 178   2.0000      -0.186185        -5.0664 
 179   2.0000      -0.175166        -4.7665 
 180   2.0000      -0.174054        -4.7363 
 181   2.0000      -0.141582        -3.8526 
 182   0.0000      -0.114289        -3.1100 
 183   0.0000      -0.067758        -1.8438 
 184   0.0000      -0.050956        -1.3866 
 185   0.0000      -0.048637        -1.3235 
 186   0.0000      -0.037206        -1.0124 
 187   0.0000      -0.033814        -0.9201 
 188   0.0000      -0.028466        -0.7746 
 189   0.0000      -0.025505        -0.6940 
 190   0.0000      -0.020183        -0.5492 
 191   0.0000      -0.015485        -0.4214 
 192   0.0000      -0.010506        -0.2859 
 193   0.0000      -0.006022        -0.1639 
 194   0.0000       0.000262         0.0071 
 195   0.0000       0.007689         0.2092 
 196   0.0000       0.026445         0.7196 
 197   0.0000       0.036224         0.9857 
 198   0.0000       0.042444         1.1550 
 199   0.0000       0.048910         1.3309 
 200   0.0000       0.052216         1.4209 
 201   0.0000       0.053144         1.4461 
 202   0.0000       0.056419         1.5352 
 203   0.0000       0.058469         1.5910 
 204   0.0000       0.060738         1.6528 
 205   0.0000       0.064066         1.7433 
 206   0.0000       0.066905         1.8206 
 207   0.0000       0.069300         1.8858 
 208   0.0000       0.073820         2.0087 
 209   0.0000       0.078108         2.1254 
 210   0.0000       0.081462         2.2167 
 211   0.0000       0.086366         2.3501 
 212   0.0000       0.089052         2.4232 
 213   0.0000       0.090173         2.4537 
 214   0.0000       0.094723         2.5775 
 215   0.0000       0.097159         2.6438 
 216   0.0000       0.099730         2.7138 
 217   0.0000       0.102153         2.7797 
 218   0.0000       0.103073         2.8048 
 219   0.0000       0.104900         2.8545 
 220   0.0000       0.107584         2.9275 
 221   0.0000       0.110300         3.0014 
 222   0.0000       0.111298         3.0286 
 223   0.0000       0.112598         3.0640 
 224   0.0000       0.114281         3.1098 
 225   0.0000       0.116688         3.1752 
 226   0.0000       0.118171         3.2156 
 227   0.0000       0.119393         3.2488 
 228   0.0000       0.120894         3.2897 
 229   0.0000       0.127652         3.4736 
 230   0.0000       0.129053         3.5117 
 231   0.0000       0.131050         3.5660 
 232   0.0000       0.134963         3.6725 
 233   0.0000       0.138080         3.7573 
 234   0.0000       0.138830         3.7777 
 235   0.0000       0.142813         3.8861 
 236   0.0000       0.143985         3.9180 
 237   0.0000       0.146647         3.9905 
 238   0.0000       0.149677         4.0729 
 239   0.0000       0.152480         4.1492 
 240   0.0000       0.158571         4.3149 
 241   0.0000       0.159423         4.3381 
 242   0.0000       0.164393         4.4734 
 243   0.0000       0.169958         4.6248 
 244   0.0000       0.172287         4.6882 
 245   0.0000       0.177839         4.8392 
 246   0.0000       0.179005         4.8710 
 247   0.0000       0.180292         4.9060 
 248   0.0000       0.183737         4.9997 
 249   0.0000       0.184125         5.0103 
 250   0.0000       0.188331         5.1247 
 251   0.0000       0.189665         5.1610 
 252   0.0000       0.191477         5.2103 
 253   0.0000       0.193904         5.2764 
 254   0.0000       0.196738         5.3535 
 255   0.0000       0.198359         5.3976 
 256   0.0000       0.200257         5.4493 
 257   0.0000       0.204312         5.5596 
 258   0.0000       0.205976         5.6049 
 259   0.0000       0.208281         5.6676 
 260   0.0000       0.209509         5.7010 
 261   0.0000       0.210289         5.7222 
 262   0.0000       0.211827         5.7641 
 263   0.0000       0.214991         5.8502 
 264   0.0000       0.217844         5.9278 
 265   0.0000       0.219205         5.9649 
 266   0.0000       0.221306         6.0220 
 267   0.0000       0.222782         6.0622 
 268   0.0000       0.225623         6.1395 
 269   0.0000       0.228276         6.2117 
 270   0.0000       0.232115         6.3162 
 271   0.0000       0.232907         6.3377 
 272   0.0000       0.235288         6.4025 
 273   0.0000       0.237535         6.4637 
 274   0.0000       0.239593         6.5196 
 275   0.0000       0.240884         6.5548 
 276   0.0000       0.246037         6.6950 
 277   0.0000       0.246623         6.7109 
 278   0.0000       0.248832         6.7711 
 279   0.0000       0.251754         6.8506 
 280   0.0000       0.252982         6.8840 
 281   0.0000       0.254751         6.9321 
 282   0.0000       0.255406         6.9499 
 283   0.0000       0.257547         7.0082 
 284   0.0000       0.260677         7.0934 
 285   0.0000       0.262828         7.1519 
 286   0.0000       0.265462         7.2236 
 287   0.0000       0.266719         7.2578 
 288   0.0000       0.268719         7.3122 
 289   0.0000       0.270606         7.3636 
 290   0.0000       0.273723         7.4484 
 291   0.0000       0.275315         7.4917 
 292   0.0000       0.279721         7.6116 
 293   0.0000       0.281234         7.6528 
 294   0.0000       0.283576         7.7165 
 295   0.0000       0.285312         7.7637 
 296   0.0000       0.288128         7.8404 
 297   0.0000       0.291079         7.9207 
 298   0.0000       0.292265         7.9529 
 299   0.0000       0.295944         8.0530 
 300   0.0000       0.296792         8.0761 
 301   0.0000       0.299351         8.1457 
 302   0.0000       0.299804         8.1581 
 303   0.0000       0.304002         8.2723 
 304   0.0000       0.305960         8.3256 
 305   0.0000       0.307480         8.3669 
 306   0.0000       0.311208         8.4684 
 307   0.0000       0.312829         8.5125 
 308   0.0000       0.313737         8.5372 
 309   0.0000       0.314951         8.5703 
 310   0.0000       0.321555         8.7499 
 311   0.0000       0.323568         8.8047 
 312   0.0000       0.325556         8.8588 
 313   0.0000       0.326096         8.8735 
 314   0.0000       0.327022         8.8987 
 315   0.0000       0.328652         8.9431 
 316   0.0000       0.332017         9.0346 
 317   0.0000       0.333660         9.0794 
 318   0.0000       0.336346         9.1524 
 319   0.0000       0.339302         9.2329 
 320   0.0000       0.342861         9.3297 
 321   0.0000       0.345854         9.4112 
 322   0.0000       0.346292         9.4231 
 323   0.0000       0.350866         9.5476 
 324   0.0000       0.351372         9.5613 
 325   0.0000       0.352541         9.5931 
 326   0.0000       0.353975         9.6321 
 327   0.0000       0.355323         9.6688 
 328   0.0000       0.356591         9.7033 
 329   0.0000       0.359175         9.7737 
 330   0.0000       0.360764         9.8169 
 331   0.0000       0.363621         9.8946 
 332   0.0000       0.365006         9.9323 
 333   0.0000       0.369478        10.0540 
 334   0.0000       0.369787        10.0624 
 335   0.0000       0.373019        10.1503 
 336   0.0000       0.375900        10.2288 
 337   0.0000       0.378738        10.3060 
 338   0.0000       0.380439        10.3523 
 339   0.0000       0.385825        10.4988 
 340   0.0000       0.387065        10.5326 
 341   0.0000       0.388397        10.5688 
 342   0.0000       0.390195        10.6177 
 343   0.0000       0.393769        10.7150 
 344   0.0000       0.396285        10.7835 
 345   0.0000       0.400000        10.8846 
 346   0.0000       0.401206        10.9174 
 347   0.0000       0.404229        10.9996 
 348   0.0000       0.404775        11.0145 
 349   0.0000       0.405903        11.0452 
 350   0.0000       0.407483        11.0882 
 351   0.0000       0.410835        11.1794 
 352   0.0000       0.412005        11.2112 
 353   0.0000       0.413510        11.2522 
 354   0.0000       0.416910        11.3447 
 355   0.0000       0.419062        11.4033 
 356   0.0000       0.420253        11.4357 
 357   0.0000       0.421736        11.4760 
 358   0.0000       0.423418        11.5218 
 359   0.0000       0.425840        11.5877 
 360   0.0000       0.427930        11.6446 
 361   0.0000       0.428636        11.6638 
 362   0.0000       0.433100        11.7853 
 363   0.0000       0.434541        11.8245 
 364   0.0000       0.437281        11.8990 
 365   0.0000       0.439387        11.9563 
 366   0.0000       0.441373        12.0104 
 367   0.0000       0.442344        12.0368 
 368   0.0000       0.445062        12.1108 
 369   0.0000       0.449869        12.2416 
 370   0.0000       0.451286        12.2801 
 371   0.0000       0.453784        12.3481 
 372   0.0000       0.456423        12.4199 
 373   0.0000       0.457382        12.4460 
 374   0.0000       0.459520        12.5042 
 375   0.0000       0.461430        12.5561 
 376   0.0000       0.462980        12.5983 
 377   0.0000       0.466174        12.6852 
 378   0.0000       0.468780        12.7562 
 379   0.0000       0.470832        12.8120 
 380   0.0000       0.472720        12.8634 
 381   0.0000       0.476262        12.9598 
 382   0.0000       0.479122        13.0376 
 383   0.0000       0.481685        13.1073 
 384   0.0000       0.484820        13.1926 
 385   0.0000       0.487140        13.2558 
 386   0.0000       0.488007        13.2794 
 387   0.0000       0.488870        13.3028 
 388   0.0000       0.492830        13.4106 
 389   0.0000       0.494287        13.4502 
 390   0.0000       0.496692        13.5157 
 391   0.0000       0.499318        13.5871 
 392   0.0000       0.500564        13.6210 
 393   0.0000       0.504330        13.7235 
 394   0.0000       0.504688        13.7333 
 395   0.0000       0.505202        13.7472 
 396   0.0000       0.510659        13.8958 
 397   0.0000       0.512809        13.9542 
 398   0.0000       0.514223        13.9927 
 399   0.0000       0.518559        14.1107 
 400   0.0000       0.520991        14.1769 
 401   0.0000       0.523388        14.2421 
 402   0.0000       0.526376        14.3234 
 403   0.0000       0.529917        14.4198 
 404   0.0000       0.533802        14.5255 
 405   0.0000       0.534941        14.5565 
 406   0.0000       0.539085        14.6692 
 407   0.0000       0.541347        14.7308 
 408   0.0000       0.543060        14.7774 
 409   0.0000       0.545451        14.8425 
 410   0.0000       0.549096        14.9416 
 411   0.0000       0.554754        15.0956 
 412   0.0000       0.557035        15.1577 
 413   0.0000       0.559032        15.2120 
 414   0.0000       0.563611        15.3366 
 415   0.0000       0.563720        15.3396 
 416   0.0000       0.567221        15.4349 
 417   0.0000       0.572206        15.5705 
 418   0.0000       0.575137        15.6503 
 419   0.0000       0.581232        15.8161 
 420   0.0000       0.583653        15.8820 
 421   0.0000       0.585503        15.9324 
 422   0.0000       0.588463        16.0129 
 423   0.0000       0.595528        16.2051 
 424   0.0000       0.602165        16.3857 
 425   0.0000       0.605056        16.4644 
 426   0.0000       0.609282        16.5794 
 427   0.0000       0.612138        16.6571 
 428   0.0000       0.613865        16.7041 
 429   0.0000       0.620623        16.8880 
 430   0.0000       0.625209        17.0128 
 431   0.0000       0.627604        17.0780 
 432   0.0000       0.630862        17.1666 
 433   0.0000       0.634549        17.2670 
 434   0.0000       0.636174        17.3112 
 435   0.0000       0.638422        17.3723 
 436   0.0000       0.643610        17.5135 
 437   0.0000       0.645360        17.5611 
 438   0.0000       0.647228        17.6120 
 439   0.0000       0.650579        17.7032 
 440   0.0000       0.653800        17.7908 
 441   0.0000       0.657284        17.8856 
 442   0.0000       0.659782        17.9536 
 443   0.0000       0.662754        18.0345 
 444   0.0000       0.666583        18.1387 
 445   0.0000       0.669297        18.2125 
 446   0.0000       0.670455        18.2440 
 447   0.0000       0.674515        18.3545 
 448   0.0000       0.676283        18.4026 
 449   0.0000       0.679528        18.4909 
 450   0.0000       0.681078        18.5331 
 451   0.0000       0.685482        18.6529 
 452   0.0000       0.686473        18.6799 
 453   0.0000       0.689936        18.7741 
 454   0.0000       0.690654        18.7937 
 455   0.0000       0.693919        18.8825 
 456   0.0000       0.699465        19.0334 
 457   0.0000       0.704144        19.1607 
 458   0.0000       0.709229        19.2991 
 459   0.0000       0.711148        19.3513 
 460   0.0000       0.712751        19.3950 
 461   0.0000       0.715300        19.4643 
 462   0.0000       0.719455        19.5774 
 463   0.0000       0.720964        19.6184 
 464   0.0000       0.725285        19.7360 
 465   0.0000       0.730890        19.8885 
 466   0.0000       0.738396        20.0928 
 467   0.0000       0.741167        20.1682 
 468   0.0000       0.742878        20.2147 
 469   0.0000       0.746113        20.3028 
 470   0.0000       0.754009        20.5176 
 471   0.0000       0.757386        20.6095 
 472   0.0000       0.760643        20.6981 
 473   0.0000       0.762839        20.7579 
 474   0.0000       0.771656        20.9978 
 475   0.0000       0.774234        21.0680 
 476   0.0000       0.777016        21.1437 
 477   0.0000       0.783361        21.3163 
 478   0.0000       0.785917        21.3859 
 479   0.0000       0.790823        21.5194 
 480   0.0000       0.792184        21.5564 
 481   0.0000       0.802418        21.8349 
 482   0.0000       0.807729        21.9794 
 483   0.0000       0.813960        22.1490 
 484   0.0000       0.820552        22.3284 
 485   0.0000       0.824478        22.4352 
 486   0.0000       0.831614        22.6294 
 487   0.0000       0.834359        22.7041 
 488   0.0000       0.845096        22.9962 
 489   0.0000       0.850614        23.1464 
 490   0.0000       0.856740        23.3131 
 491   0.0000       0.863239        23.4899 
 492   0.0000       0.874705        23.8019 
 493   0.0000       0.879329        23.9278 
 494   0.0000       0.887607        24.1530 
 495   0.0000       0.890347        24.2276 
 496   0.0000       0.902580        24.5604 
 497   0.0000       0.904726        24.6188 
 498   0.0000       0.911981        24.8163 
 499   0.0000       0.917080        24.9550 
 500   0.0000       0.929874        25.3032 
 501   0.0000       0.939729        25.5713 
 502   0.0000       0.949568        25.8390 
 503   0.0000       0.951071        25.8800 
 504   0.0000       0.958168        26.0731 
 505   0.0000       0.968416        26.3519 
 506   0.0000       0.983060        26.7504 
 507   0.0000       0.993864        27.0444 
 508   0.0000       1.012966        27.5642 
 509   0.0000       1.025401        27.9026 
 510   0.0000       1.065941        29.0057 
 511   0.0000       1.086639        29.5689 
 512   0.0000       1.139613        31.0104 
 513   0.0000       1.175784        31.9947 
 514   0.0000       1.189098        32.3570 
 515   0.0000       1.203876        32.7591 
 516   0.0000       1.204757        32.7831 
 517   0.0000       1.215261        33.0689 
 518   0.0000       1.221192        33.2303 
 519   0.0000       1.225670        33.3522 
 520   0.0000       1.229309        33.4512 
 521   0.0000       1.234740        33.5990 
 522   0.0000       1.241538        33.7840 
 523   0.0000       1.253631        34.1130 
 524   0.0000       1.254210        34.1288 
 525   0.0000       1.259065        34.2609 
 526   0.0000       1.263753        34.3885 
 527   0.0000       1.267231        34.4831 
 528   0.0000       1.276757        34.7423 
 529   0.0000       1.283825        34.9346 
 530   0.0000       1.287746        35.0413 
 531   0.0000       1.289993        35.1025 
[...]
177:   1467.67   0.002899   14.65  0.000616  (-0.023358 -0.007286 -0.004200)
178:   1472.75   0.000081    0.41  0.000017  ( 0.001307 -0.001981 -0.003383)
179:   1478.04   0.019681   99.46  0.004155  ( 0.058615  0.019987  0.017893)
180:   1481.09   0.023543  118.98  0.004961  ( 0.069599 -0.007633 -0.007629)
181:   1489.81   0.002221   11.22  0.000465  ( 0.016825 -0.005906 -0.012135)
182:   1498.36   0.035587  179.84  0.007412  (-0.071710 -0.037675 -0.029155)
183:   1502.28   0.001734    8.76  0.000360  ( 0.013812  0.010756  0.007336)
184:   1508.30   0.008537   43.14  0.001766  ( 0.008070  0.031869 -0.026181)
185:   1514.06   0.000836    4.23  0.000172  (-0.005845  0.010893 -0.004415)
186:   1516.39   0.002405   12.16  0.000495  (-0.000268  0.012359 -0.018497)
187:   1532.00   0.013837   69.93  0.002819  ( 0.019444  0.037071  0.032655)
188:   1540.23   0.001181    5.97  0.000239  ( 0.013591 -0.007212 -0.001617)
189:   1551.67   0.001978   10.00  0.000398  (-0.016863  0.010024 -0.003607)
190:   1556.10   0.014796   74.77  0.002967  ( 0.045710 -0.021179 -0.020718)
191:   1557.36   0.005790   29.26  0.001160  (-0.023840  0.003844 -0.024022)
192:   1570.67   0.003285   16.60  0.000653  ( 0.023299 -0.002580 -0.010153)
193:   1571.00   0.004301   21.74  0.000854  (-0.027380 -0.006363  0.008010)
194:   1577.64   0.000312    1.57  0.000062  ( 0.001764 -0.005922 -0.004843)
195:   1583.19   0.000770    3.89  0.000152  (-0.009496  0.005874  0.005199)
196:   1588.30   0.003871   19.56  0.000761  (-0.025000  0.011574 -0.001297)
197:   1596.04   0.003504   17.71  0.000685  (-0.011667 -0.019738  0.012626)
198:   1607.94   0.000678    3.43  0.000132  (-0.001032  0.007695 -0.008447)
199:   1611.68   0.001743    8.81  0.000337  ( 0.007989  0.011813 -0.011579)
200:   2899.61   0.024346  123.04  0.002620  ( 0.030594  0.040057 -0.008924)
201:   2956.10   0.015414   77.90  0.001627  ( 0.012119 -0.023327 -0.030597)
202:   3013.34   0.008814   44.54  0.000913  ( 0.026705 -0.002478  0.013909)
203:   3037.49   0.005967   30.16  0.000613  ( 0.001953  0.024588 -0.002163)
204:   3041.58   0.002178   11.01  0.000223  ( 0.006584  0.003371 -0.012990)
205:   3042.37   0.001497    7.57  0.000154  ( 0.012241  0.001282  0.001450)
206:   3045.12   0.001426    7.21  0.000146  (-0.005823  0.009483 -0.004726)
207:   3046.11   0.000323    1.63  0.000033  (-0.005190 -0.002470  0.000298)
208:   3047.13   0.000101    0.51  0.000010  (-0.000587 -0.002839  0.001390)
209:   3048.13   0.000185    0.94  0.000019  (-0.003574 -0.002460 -0.000406)
210:   3048.49   0.003153   15.94  0.000323  ( 0.008768  0.009716 -0.012310)
211:   3049.76   0.001879    9.50  0.000192  ( 0.003163 -0.011673  0.006782)
212:   3052.99   0.001397    7.06  0.000143  (-0.000388 -0.009127  0.007707)
213:   3054.02   0.011681   59.03  0.001194  (-0.009726  0.029409  0.015302)
214:   3054.09   0.010694   54.04  0.001093  (-0.028693 -0.007171 -0.014763)
215:   3055.28   0.006166   31.16  0.000630  ( 0.001814 -0.021019 -0.013591)
216:   3057.12   0.004666   23.58  0.000476  (-0.013391 -0.015978  0.006456)
217:   3059.10   0.010454   52.83  0.001066  ( 0.011862 -0.026497  0.014954)
218:   3060.38   0.014975   75.68  0.001527  ( 0.028308 -0.008586  0.025533)
219:   3061.77   0.016370   82.73  0.001669  ( 0.005120 -0.016858 -0.036852)
220:   3065.19   0.005692   28.76  0.000579  (-0.001780 -0.022342  0.008784)
221:   3065.34   0.015640   79.04  0.001592  (-0.021779 -0.024040  0.023238)
222:   3066.63   0.020784  105.04  0.002115  (-0.044453  0.001951  0.011626)
223:   3067.97   0.009130   46.14  0.000929  ( 0.027962  0.005946  0.010555)
224:   3068.30   0.015823   79.96  0.001609  (-0.037814  0.000383  0.013387)
225:   3069.50   0.011319   57.20  0.001151  ( 0.000668 -0.031840  0.011685)
226:   3075.12   0.009763   49.34  0.000991  ( 0.005418 -0.024892 -0.018489)
227:   3076.38   0.006652   33.62  0.000675  (-0.002686 -0.012467 -0.022631)
228:   3078.32   0.009667   48.85  0.000980  ( 0.018861  0.024962  0.001074)
229:   3084.98   0.003075   15.54  0.000311  (-0.005077  0.013247  0.010479)
230:   3085.96   0.001788    9.03  0.000181  (-0.005669 -0.010406  0.006353)

* The epsilon (eps) is given for a Dirac delta lineshape.
** The dipole moment derivative (T) already includes vibrational overlap.

The first frequency considered to be a vibration is 6
The total number of vibrations considered is 225


--------------------------
THERMOCHEMISTRY AT 298.15K
--------------------------

Temperature         ... 298.15 K
Pressure            ... 1.00 atm
Total Mass          ... 711.16 AMU

Throughout the following assumptions are being made:
  (1) The electronic state is orbitally nondegenerate
  (2) There are no thermally accessible electronically excited states
  (3) Hindered rotations indicated by low frequency modes are not
      treated as such but are treated as vibrations and this may
      cause some error
  (4) All equations used are the standard statistical mechanics
      equations for an ideal gas
  (5) All vibrations are strictly harmonic

freq.      24.88  E(vib)   ...       0.56 
freq.      36.10  E(vib)   ...       0.54 
freq.      41.68  E(vib)   ...       0.53 
freq.      46.52  E(vib)   ...       0.53 
freq.      49.11  E(vib)   ...       0.53 
freq.      62.35  E(vib)   ...       0.51 
freq.      64.83  E(vib)   ...       0.50 
freq.      68.65  E(vib)   ...       0.50 
freq.      72.98  E(vib)   ...       0.49 
freq.      80.13  E(vib)   ...       0.49 
freq.      83.14  E(vib)   ...       0.48 
freq.      94.07  E(vib)   ...       0.47 
freq.      98.30  E(vib)   ...       0.46 
freq.     107.72  E(vib)   ...       0.45 
freq.     109.69  E(vib)   ...       0.45 
freq.     119.25  E(vib)   ...       0.44 
freq.     122.70  E(vib)   ...       0.43 
freq.     126.27  E(vib)   ...       0.43 
freq.     129.27  E(vib)   ...       0.43 
freq.     132.43  E(vib)   ...       0.42 
freq.     149.51  E(vib)   ...       0.40 
freq.     154.34  E(vib)   ...       0.40 
freq.     164.91  E(vib)   ...       0.39 
freq.     168.34  E(vib)   ...       0.38 
freq.     186.66  E(vib)   ...       0.37 
freq.     191.57  E(vib)   ...       0.36 
freq.     204.28  E(vib)   ...       0.35 
freq.     217.86  E(vib)   ...       0.33 
freq.     245.87  E(vib)   ...       0.31 
freq.     255.04  E(vib)   ...       0.30 
freq.     264.99  E(vib)   ...       0.29 
freq.     270.51  E(vib)   ...       0.29 
freq.     283.81  E(vib)   ...       0.28 
freq.     293.49  E(vib)   ...       0.27 
freq.     308.48  E(vib)   ...       0.26 
freq.     314.69  E(vib)   ...       0.25 
freq.     325.08  E(vib)   ...       0.24 
freq.     335.22  E(vib)   ...       0.24 
freq.     364.14  E(vib)   ...       0.22 
freq.     375.12  E(vib)   ...       0.21 
freq.     377.61  E(vib)   ...       0.21 
freq.     412.87  E(vib)   ...       0.19 
freq.     414.39  E(vib)   ...       0.19 
freq.     419.94  E(vib)   ...       0.18 
freq.     421.39  E(vib)   ...       0.18 
freq.     430.84  E(vib)   ...       0.18 
freq.     436.71  E(vib)   ...       0.17 
freq.     457.21  E(vib)   ...       0.16 
freq.     471.12  E(vib)   ...       0.15 
freq.     477.40  E(vib)   ...       0.15 
freq.     491.78  E(vib)   ...       0.14 
freq.     506.10  E(vib)   ...       0.14 
freq.     522.55  E(vib)   ...       0.13 
freq.     530.72  E(vib)   ...       0.13 
freq.     535.90  E(vib)   ...       0.12 
freq.     538.41  E(vib)   ...       0.12 
freq.     549.18  E(vib)   ...       0.12 
freq.     556.70  E(vib)   ...       0.12 
freq.     563.67  E(vib)   ...       0.11 
freq.     571.47  E(vib)   ...       0.11 
freq.     588.36  E(vib)   ...       0.10 
freq.     605.47  E(vib)   ...       0.10 
freq.     606.25  E(vib)   ...       0.10 
freq.     616.59  E(vib)   ...       0.09 
freq.     631.55  E(vib)   ...       0.09 
freq.     634.33  E(vib)   ...       0.09 
freq.     635.17  E(vib)   ...       0.09 
freq.     636.95  E(vib)   ...       0.09 
freq.     651.92  E(vib)   ...       0.08 
freq.     663.84  E(vib)   ...       0.08 
freq.     668.60  E(vib)   ...       0.08 
freq.     681.96  E(vib)   ...       0.08 
freq.     697.01  E(vib)   ...       0.07 
freq.     704.89  E(vib)   ...       0.07 
freq.     707.20  E(vib)   ...       0.07 
freq.     720.28  E(vib)   ...       0.07 
freq.     725.22  E(vib)   ...       0.06 
freq.     735.06  E(vib)   ...       0.06 
freq.     754.02  E(vib)   ...       0.06 
freq.     755.29  E(vib)   ...       0.06 
freq.     765.37  E(vib)   ...       0.06 
freq.     773.36  E(vib)   ...       0.05 
freq.     784.65  E(vib)   ...       0.05 
freq.     786.69  E(vib)   ...       0.05 
freq.     789.86  E(vib)   ...       0.05 
freq.     794.52  E(vib)   ...       0.05 
freq.     803.34  E(vib)   ...       0.05 
freq.     811.81  E(vib)   ...       0.05 
freq.     835.72  E(vib)   ...       0.04 
freq.     837.61  E(vib)   ...       0.04 
freq.     842.69  E(vib)   ...       0.04 
freq.     847.52  E(vib)   ...       0.04 
freq.     865.90  E(vib)   ...       0.04 
freq.     873.97  E(vib)   ...       0.04 
freq.     878.47  E(vib)   ...       0.04 
freq.     881.96  E(vib)   ...       0.04 
freq.     893.05  E(vib)   ...       0.03 
freq.     896.21  E(vib)   ...       0.03 
freq.     904.16  E(vib)   ...       0.03 
freq.     914.48  E(vib)   ...       0.03 
freq.     924.24  E(vib)   ...       0.03 
freq.     924.57  E(vib)   ...       0.03 
freq.     926.03  E(vib)   ...       0.03 
freq.     932.69  E(vib)   ...       0.03 
freq.     934.24  E(vib)   ...       0.03 
freq.     941.87  E(vib)   ...       0.03 
freq.     950.80  E(vib)   ...       0.03 
freq.     952.46  E(vib)   ...       0.03 
freq.     957.51  E(vib)   ...       0.03 
freq.     959.33  E(vib)   ...       0.03 
freq.     967.72  E(vib)   ...       0.03 
freq.     980.18  E(vib)   ...       0.02 
freq.     985.95  E(vib)   ...       0.02 
freq.     995.58  E(vib)   ...       0.02 
freq.     995.91  E(vib)   ...       0.02 
freq.     999.86  E(vib)   ...       0.02 
freq.    1000.62  E(vib)   ...       0.02 
freq.    1018.95  E(vib)   ...       0.02 
freq.    1020.35  E(vib)   ...       0.02 
freq.    1028.58  E(vib)   ...       0.02 
freq.    1031.37  E(vib)   ...       0.02 
freq.    1036.90  E(vib)   ...       0.02 
freq.    1040.77  E(vib)   ...       0.02 
freq.    1054.97  E(vib)   ...       0.02 
freq.    1064.25  E(vib)   ...       0.02 
freq.    1067.17  E(vib)   ...       0.02 
freq.    1085.27  E(vib)   ...       0.02 
freq.    1088.17  E(vib)   ...       0.02 
freq.    1104.18  E(vib)   ...       0.02 
freq.    1111.11  E(vib)   ...       0.01 
freq.    1112.62  E(vib)   ...       0.01 
freq.    1128.26  E(vib)   ...       0.01 
freq.    1155.57  E(vib)   ...       0.01 
freq.    1162.69  E(vib)   ...       0.01 
freq.    1164.45  E(vib)   ...       0.01 
freq.    1168.25  E(vib)   ...       0.01 
freq.    1169.89  E(vib)   ...       0.01 
freq.    1171.38  E(vib)   ...       0.01 
freq.    1186.16  E(vib)   ...       0.01 
freq.    1191.25  E(vib)   ...       0.01 
freq.    1195.40  E(vib)   ...       0.01 
freq.    1196.98  E(vib)   ...       0.01 
freq.    1199.17  E(vib)   ...       0.01 
freq.    1210.08  E(vib)   ...       0.01 
freq.    1212.03  E(vib)   ...       0.01 
freq.    1222.64  E(vib)   ...       0.01 
freq.    1250.47  E(vib)   ...       0.01 
freq.    1253.33  E(vib)   ...       0.01 
freq.    1254.76  E(vib)   ...       0.01 
freq.    1266.45  E(vib)   ...       0.01 
freq.    1273.10  E(vib)   ...       0.01 
freq.    1286.44  E(vib)   ...       0.01 
freq.    1292.38  E(vib)   ...       0.01 
freq.    1295.02  E(vib)   ...       0.01 
freq.    1296.99  E(vib)   ...       0.01 
freq.    1310.46  E(vib)   ...       0.01 
freq.    1312.31  E(vib)   ...       0.01 
freq.    1323.38  E(vib)   ...       0.01 
freq.    1326.00  E(vib)   ...       0.01 
freq.    1335.18  E(vib)   ...       0.01 
freq.    1343.83  E(vib)   ...       0.01 
freq.    1351.70  E(vib)   ...       0.01 
freq.    1354.57  E(vib)   ...       0.01 
freq.    1358.90  E(vib)   ...       0.01 
freq.    1369.53  E(vib)   ...       0.01 
freq.    1390.74  E(vib)   ...       0.00 
freq.    1439.55  E(vib)   ...       0.00 
freq.    1447.32  E(vib)   ...       0.00 
freq.    1454.01  E(vib)   ...       0.00 
freq.    1457.70  E(vib)   ...       0.00 
freq.    1462.59  E(vib)   ...       0.00 
freq.    1467.67  E(vib)   ...       0.00 
freq.    1472.75  E(vib)   ...       0.00 
freq.    1478.04  E(vib)   ...       0.00 
freq.    1481.09  E(vib)   ...       0.00 
freq.    1489.81  E(vib)   ...       0.00 
freq.    1498.36  E(vib)   ...       0.00 
freq.    1502.28  E(vib)   ...       0.00 
freq.    1508.30  E(vib)   ...       0.00 
freq.    1514.06  E(vib)   ...       0.00 
freq.    1516.39  E(vib)   ...       0.00 
freq.    1532.00  E(vib)   ...       0.00 
freq.    1540.23  E(vib)   ...       0.00 
freq.    1551.67  E(vib)   ...       0.00 
freq.    1556.10  E(vib)   ...       0.00 
freq.    1557.36  E(vib)   ...       0.00 
freq.    1570.67  E(vib)   ...       0.00 
freq.    1571.00  E(vib)   ...       0.00 
freq.    1577.64  E(vib)   ...       0.00 
freq.    1583.19  E(vib)   ...       0.00 
freq.    1588.30  E(vib)   ...       0.00 
freq.    1596.04  E(vib)   ...       0.00 
freq.    1607.94  E(vib)   ...       0.00 
freq.    1611.68  E(vib)   ...       0.00 
freq.    2899.61  E(vib)   ...       0.00 
freq.    2956.10  E(vib)   ...       0.00 
freq.    3013.34  E(vib)   ...       0.00 
freq.    3037.49  E(vib)   ...       0.00 
freq.    3041.58  E(vib)   ...       0.00 
freq.    3042.37  E(vib)   ...       0.00 
freq.    3045.12  E(vib)   ...       0.00 
freq.    3046.11  E(vib)   ...       0.00 
freq.    3047.13  E(vib)   ...       0.00 
freq.    3048.13  E(vib)   ...       0.00 
freq.    3048.49  E(vib)   ...       0.00 
freq.    3049.76  E(vib)   ...       0.00 
freq.    3052.99  E(vib)   ...       0.00 
freq.    3054.02  E(vib)   ...       0.00 
freq.    3054.09  E(vib)   ...       0.00 
freq.    3055.28  E(vib)   ...       0.00 
freq.    3057.12  E(vib)   ...       0.00 
freq.    3059.10  E(vib)   ...       0.00 
freq.    3060.38  E(vib)   ...       0.00 
freq.    3061.77  E(vib)   ...       0.00 
freq.    3065.19  E(vib)   ...       0.00 
freq.    3065.34  E(vib)   ...       0.00 
freq.    3066.63  E(vib)   ...       0.00 
freq.    3067.97  E(vib)   ...       0.00 
freq.    3068.30  E(vib)   ...       0.00 
freq.    3069.50  E(vib)   ...       0.00 
freq.    3075.12  E(vib)   ...       0.00 
freq.    3076.38  E(vib)   ...       0.00 
freq.    3078.32  E(vib)   ...       0.00 
freq.    3084.98  E(vib)   ...       0.00 
freq.    3085.96  E(vib)   ...       0.00 

------------
INNER ENERGY
------------

The inner energy is: U= E(el) + E(ZPE) + E(vib) + E(rot) + E(trans)
    E(el)   - is the total energy from the electronic structure calculation
              = E(kin-el) + E(nuc-el) + E(el-el) + E(nuc-nuc)
    E(ZPE)  - the the zero temperature vibrational energy from the frequency calculation
    E(vib)  - the the finite temperature correction to E(ZPE) due to population
              of excited vibrational states
    E(rot)  - is the rotational thermal energy
    E(trans)- is the translational thermal energy

Summary of contributions to the inner energy U:
Electronic energy                ...  -5981.27579221 Eh
Zero point energy                ...      0.58998307 Eh     370.22 kcal/mol
Thermal vibrational correction   ...      0.03561299 Eh      22.35 kcal/mol
Thermal rotational correction    ...      0.00141627 Eh       0.89 kcal/mol
Thermal translational correction ...      0.00141627 Eh       0.89 kcal/mol
-----------------------------------------------------------------------
Total thermal energy                  -5980.64736361 Eh


Summary of corrections to the electronic energy:
(perhaps to be used in another calculation)
Total thermal correction                  0.03844554 Eh      24.12 kcal/mol
Non-thermal (ZPE) correction              0.58998307 Eh     370.22 kcal/mol
-----------------------------------------------------------------------
Total correction                          0.62842860 Eh     394.34 kcal/mol


--------
ENTHALPY
--------

The enthalpy is H = U + kB*T
                kB is Boltzmann's constant
Total free energy                 ...  -5980.64736361 Eh 
Thermal Enthalpy correction       ...      0.00094421 Eh       0.59 kcal/mol
-----------------------------------------------------------------------
Total Enthalpy                    ...  -5980.64641940 Eh


Note: Only C1 symmetry has been detected, increase convergence thresholds 
      if your molecule has a higher symmetry. Symmetry factor of 1.0 is   
      used for the rotational entropy correction. 
 

Note: Rotational entropy computed according to Herzberg 
Infrared and Raman Spectra, Chapter V,1, Van Nostrand Reinhold, 1945 
Point Group:  C1, Symmetry Number:   1  
Rotational constants in cm-1:     0.002878     0.002157     0.001784 

Vibrational entropy computed according to the QRRHO of S. Grimme
Chem.Eur.J. 2012 18 9955


-------
ENTROPY
-------

The entropy contributions are T*S = T*(S(el)+S(vib)+S(rot)+S(trans))
     S(el)   - electronic entropy
     S(vib)  - vibrational entropy
     S(rot)  - rotational entropy
     S(trans)- translational entropy
The entropies will be listed as multiplied by the temperature to get
units of energy

Electronic entropy                ...      0.00000000 Eh      0.00 kcal/mol
Vibrational entropy               ...      0.06254412 Eh     39.25 kcal/mol
Rotational entropy                ...      0.01815894 Eh     11.39 kcal/mol
Translational entropy             ...      0.02164958 Eh     13.59 kcal/mol
-----------------------------------------------------------------------
Final entropy term                ...      0.10235265 Eh     64.23 kcal/mol

In case the symmetry of your molecule has not been determined correctly
or in case you have a reason to use a different symmetry number we print 
out the resulting rotational entropy values for sn=1,12 :
 --------------------------------------------------------
|  sn= 1 | S(rot)=       0.01815894 Eh     11.39 kcal/mol|
|  sn= 2 | S(rot)=       0.01750448 Eh     10.98 kcal/mol|
|  sn= 3 | S(rot)=       0.01712165 Eh     10.74 kcal/mol|
|  sn= 4 | S(rot)=       0.01685003 Eh     10.57 kcal/mol|
|  sn= 5 | S(rot)=       0.01663934 Eh     10.44 kcal/mol|
|  sn= 6 | S(rot)=       0.01646719 Eh     10.33 kcal/mol|
|  sn= 7 | S(rot)=       0.01632165 Eh     10.24 kcal/mol|
|  sn= 8 | S(rot)=       0.01619557 Eh     10.16 kcal/mol|
|  sn= 9 | S(rot)=       0.01608436 Eh     10.09 kcal/mol|
|  sn=10 | S(rot)=       0.01598488 Eh     10.03 kcal/mol|
|  sn=11 | S(rot)=       0.01589489 Eh      9.97 kcal/mol|
|  sn=12 | S(rot)=       0.01581274 Eh      9.92 kcal/mol|
 --------------------------------------------------------


-------------------
GIBBS FREE ENERGY
-------------------

The Gibbs free energy is G = H - T*S

Total enthalpy                    ...  -5980.64641940 Eh 
Total entropy correction          ...     -0.10235265 Eh    -64.23 kcal/mol
-----------------------------------------------------------------------
Final Gibbs free energy         ...  -5980.74877204 Eh

For completeness - the Gibbs free energy minus the electronic energy
G-E(el)                           ...      0.52702017 Eh    330.71 kcal/mol



Timings for individual modules:

Sum of individual times         ...    11567.860 sec (= 192.798 min)
GTO integral calculation        ...        7.323 sec (=   0.122 min)   0.1 %
SCF iterations                  ...      265.469 sec (=   4.424 min)   2.3 %
SCF Gradient evaluation         ...       20.238 sec (=   0.337 min)   0.2 %
Numerical frequency calculation ...    11274.830 sec (= 187.914 min)  97.5 %
                             ****ORCA TERMINATED NORMALLY****
TOTAL RUN TIME: 0 days 3 hours 10 minutes 27 seconds 107 msec
