5
	Energy:      -0.0903231
N          0.08660       -2.49307        0.35003
N          1.20562       -2.54138        0.36296
C          2.45870       -2.59590        0.37751
H          2.95913       -3.55648        0.43184
H          3.04235       -1.68257        0.33849
