10
	Energy:      27.2486846
C         -0.80748        1.09818       -0.03040
S          0.46393        2.18005       -0.79100
C          1.95841        1.40592       -0.06034
H         -1.63223        1.71828        0.38105
H          2.62406        2.19036        0.35883
O          0.35859        3.22753        0.32646
H         -1.23808        0.44419       -0.81569
H          2.51868        0.88303       -0.86185
H         -0.42089        0.46228        0.79017
H          1.73757        0.68130        0.74786
